MODEL 1
REMARK VINA RESULT:      -6.3      0.000      0.000
REMARK  Name = mexiletine.pdb
REMARK  7 active torsions:
REMARK  status: ('A' for Active; 'I' for Inactive)
REMARK    1  A    between atoms: N_1  and  C_12
REMARK    2  A    between atoms: C_2  and  O_13
REMARK    3  A    between atoms: C_3  and  C_4
REMARK    4  A    between atoms: C_8  and  C_9
REMARK    5  A    between atoms: C_10  and  C_12
REMARK    6  A    between atoms: C_10  and  O_13
REMARK    7  A    between atoms: C_11  and  C_12
REMARK                            x       y       z     vdW  Elec       q    Type
REMARK                         _______ _______ _______ _____ _____    ______ ____
ROOT
ATOM      1  C   UNL A   1      81.550  69.402  68.976  0.00  0.00    +0.127 A 
ATOM      2  C   UNL A   1      81.423  69.654  67.588  0.00  0.00    -0.009 A 
ATOM      3  C   UNL A   1      80.310  69.258  66.649  0.00  0.00    +0.048 C 
ATOM      4  C   UNL A   1      82.492  70.302  66.923  0.00  0.00    +0.007 A 
ATOM      5  C   UNL A   1      83.629  70.728  67.593  0.00  0.00    +0.001 A 
ATOM      6  C   UNL A   1      83.736  70.515  68.957  0.00  0.00    +0.007 A 
ATOM      7  C   UNL A   1      82.713  69.856  69.658  0.00  0.00    -0.009 A 
ATOM      8  C   UNL A   1      82.894  69.653  71.141  0.00  0.00    +0.048 C 
ENDROOT
BRANCH   1   9
ATOM      9  O   UNL A   1      80.683  68.724  69.814  0.00  0.00    -0.486 OA
BRANCH   9  10
ATOM     10  C   UNL A   1      80.390  67.376  69.498  0.00  0.00    +0.282 C 
BRANCH  10  12
ATOM     11  C   UNL A   1      81.840  65.394  69.140  0.00  0.00    +0.067 C 
ATOM     12  C   UNL A   1      81.304  66.356  70.204  0.00  0.00    +0.096 C 
BRANCH  12  13
ATOM     13  N   UNL A   1      80.585  65.585  71.228  0.00  0.00    +0.223 N 
ATOM     14  H   UNL A   1      81.256  65.096  71.820  0.00  0.00    +0.200 HD
ATOM     15  H   UNL A   1      79.972  64.907  70.776  0.00  0.00    +0.200 HD
ATOM     16  H   UNL A   1      80.027  66.219  71.800  0.00  0.00    +0.200 HD
ENDBRANCH  12  13
ENDBRANCH  10  12
ENDBRANCH   9  10
ENDBRANCH   1   9
TORSDOF 4
ENDMDL
MODEL 2
REMARK VINA RESULT:      -5.9      1.412      2.844
REMARK  Name = mexiletine.pdb
REMARK  7 active torsions:
REMARK  status: ('A' for Active; 'I' for Inactive)
REMARK    1  A    between atoms: N_1  and  C_12
REMARK    2  A    between atoms: C_2  and  O_13
REMARK    3  A    between atoms: C_3  and  C_4
REMARK    4  A    between atoms: C_8  and  C_9
REMARK    5  A    between atoms: C_10  and  C_12
REMARK    6  A    between atoms: C_10  and  O_13
REMARK    7  A    between atoms: C_11  and  C_12
REMARK                            x       y       z     vdW  Elec       q    Type
REMARK                         _______ _______ _______ _____ _____    ______ ____
ROOT
ATOM      1  C   UNL A   1      82.461  68.334  68.212  0.00  0.00    +0.127 A 
ATOM      2  C   UNL A   1      83.501  68.869  69.011  0.00  0.00    -0.009 A 
ATOM      3  C   UNL A   1      84.141  68.290  70.249  0.00  0.00    +0.048 C 
ATOM      4  C   UNL A   1      83.999  70.156  68.691  0.00  0.00    +0.007 A 
ATOM      5  C   UNL A   1      83.529  70.880  67.606  0.00  0.00    +0.001 A 
ATOM      6  C   UNL A   1      82.539  70.340  66.803  0.00  0.00    +0.007 A 
ATOM      7  C   UNL A   1      81.997  69.077  67.092  0.00  0.00    -0.009 A 
ATOM      8  C   UNL A   1      80.919  68.550  66.179  0.00  0.00    +0.048 C 
ENDROOT
BRANCH   1   9
ATOM      9  O   UNL A   1      81.770  67.146  68.374  0.00  0.00    -0.486 OA
BRANCH   9  10
ATOM     10  C   UNL A   1      80.938  67.025  69.512  0.00  0.00    +0.282 C 
BRANCH  10  12
ATOM     11  C   UNL A   1      81.706  65.673  71.445  0.00  0.00    +0.067 C 
ATOM     12  C   UNL A   1      80.924  65.614  70.129  0.00  0.00    +0.096 C 
BRANCH  12  13
ATOM     13  N   UNL A   1      81.545  64.617  69.246  0.00  0.00    +0.223 N 
ATOM     14  H   UNL A   1      81.485  63.696  69.678  0.00  0.00    +0.200 HD
ATOM     15  H   UNL A   1      82.525  64.859  69.096  0.00  0.00    +0.200 HD
ATOM     16  H   UNL A   1      81.057  64.606  68.351  0.00  0.00    +0.200 HD
ENDBRANCH  12  13
ENDBRANCH  10  12
ENDBRANCH   9  10
ENDBRANCH   1   9
TORSDOF 4
ENDMDL
MODEL 3
REMARK VINA RESULT:      -5.8     15.023     16.280
REMARK  Name = mexiletine.pdb
REMARK  7 active torsions:
REMARK  status: ('A' for Active; 'I' for Inactive)
REMARK    1  A    between atoms: N_1  and  C_12
REMARK    2  A    between atoms: C_2  and  O_13
REMARK    3  A    between atoms: C_3  and  C_4
REMARK    4  A    between atoms: C_8  and  C_9
REMARK    5  A    between atoms: C_10  and  C_12
REMARK    6  A    between atoms: C_10  and  O_13
REMARK    7  A    between atoms: C_11  and  C_12
REMARK                            x       y       z     vdW  Elec       q    Type
REMARK                         _______ _______ _______ _____ _____    ______ ____
ROOT
ATOM      1  C   UNL A   1      74.458  74.091  82.668  0.00  0.00    +0.127 A 
ATOM      2  C   UNL A   1      74.632  75.151  81.745  0.00  0.00    -0.009 A 
ATOM      3  C   UNL A   1      73.608  76.123  81.211  0.00  0.00    +0.048 C 
ATOM      4  C   UNL A   1      75.908  75.325  81.156  0.00  0.00    +0.007 A 
ATOM      5  C   UNL A   1      76.988  74.520  81.485  0.00  0.00    +0.001 A 
ATOM      6  C   UNL A   1      76.826  73.508  82.415  0.00  0.00    +0.007 A 
ATOM      7  C   UNL A   1      75.575  73.281  83.010  0.00  0.00    -0.009 A 
ATOM      8  C   UNL A   1      75.467  72.159  84.013  0.00  0.00    +0.048 C 
ENDROOT
BRANCH   1   9
ATOM      9  O   UNL A   1      73.299  73.681  83.306  0.00  0.00    -0.486 OA
BRANCH   9  10
ATOM     10  C   UNL A   1      72.233  73.228  82.493  0.00  0.00    +0.282 C 
BRANCH  10  12
ATOM     11  C   UNL A   1      71.858  71.499  84.232  0.00  0.00    +0.067 C 
ATOM     12  C   UNL A   1      71.856  71.752  82.722  0.00  0.00    +0.096 C 
BRANCH  12  13
ATOM     13  N   UNL A   1      72.805  70.833  82.080  0.00  0.00    +0.223 N 
ATOM     14  H   UNL A   1      73.285  70.286  82.794  0.00  0.00    +0.200 HD
ATOM     15  H   UNL A   1      73.488  71.369  81.545  0.00  0.00    +0.200 HD
ATOM     16  H   UNL A   1      72.300  70.205  81.455  0.00  0.00    +0.200 HD
ENDBRANCH  12  13
ENDBRANCH  10  12
ENDBRANCH   9  10
ENDBRANCH   1   9
TORSDOF 4
ENDMDL
MODEL 4
REMARK VINA RESULT:      -5.8     39.765     41.482
REMARK  Name = mexiletine.pdb
REMARK  7 active torsions:
REMARK  status: ('A' for Active; 'I' for Inactive)
REMARK    1  A    between atoms: N_1  and  C_12
REMARK    2  A    between atoms: C_2  and  O_13
REMARK    3  A    between atoms: C_3  and  C_4
REMARK    4  A    between atoms: C_8  and  C_9
REMARK    5  A    between atoms: C_10  and  C_12
REMARK    6  A    between atoms: C_10  and  O_13
REMARK    7  A    between atoms: C_11  and  C_12
REMARK                            x       y       z     vdW  Elec       q    Type
REMARK                         _______ _______ _______ _____ _____    ______ ____
ROOT
ATOM      1  C   UNL A   1      74.303  61.077 108.435  0.00  0.00    +0.127 A 
ATOM      2  C   UNL A   1      74.905  60.051 107.667  0.00  0.00    -0.009 A 
ATOM      3  C   UNL A   1      76.031  59.119 108.043  0.00  0.00    +0.048 C 
ATOM      4  C   UNL A   1      74.478  59.877 106.328  0.00  0.00    +0.007 A 
ATOM      5  C   UNL A   1      73.470  60.648 105.768  0.00  0.00    +0.001 A 
ATOM      6  C   UNL A   1      72.857  61.626 106.532  0.00  0.00    +0.007 A 
ATOM      7  C   UNL A   1      73.260  61.853 107.858  0.00  0.00    -0.009 A 
ATOM      8  C   UNL A   1      72.553  62.937 108.633  0.00  0.00    +0.048 C 
ENDROOT
BRANCH   1   9
ATOM      9  O   UNL A   1      74.605  61.483 109.724  0.00  0.00    -0.486 OA
BRANCH   9  10
ATOM     10  C   UNL A   1      74.483  60.523 110.756  0.00  0.00    +0.282 C 
BRANCH  10  12
ATOM     11  C   UNL A   1      75.836  58.947 112.113  0.00  0.00    +0.067 C 
ATOM     12  C   UNL A   1      75.734  60.402 111.647  0.00  0.00    +0.096 C 
BRANCH  12  13
ATOM     13  N   UNL A   1      75.663  61.279 112.824  0.00  0.00    +0.223 N 
ATOM     14  H   UNL A   1      76.380  61.007 113.495  0.00  0.00    +0.200 HD
ATOM     15  H   UNL A   1      74.742  61.193 113.256  0.00  0.00    +0.200 HD
ATOM     16  H   UNL A   1      75.814  62.246 112.537  0.00  0.00    +0.200 HD
ENDBRANCH  12  13
ENDBRANCH  10  12
ENDBRANCH   9  10
ENDBRANCH   1   9
TORSDOF 4
ENDMDL
MODEL 5
REMARK VINA RESULT:      -5.8      2.016      3.476
REMARK  Name = mexiletine.pdb
REMARK  7 active torsions:
REMARK  status: ('A' for Active; 'I' for Inactive)
REMARK    1  A    between atoms: N_1  and  C_12
REMARK    2  A    between atoms: C_2  and  O_13
REMARK    3  A    between atoms: C_3  and  C_4
REMARK    4  A    between atoms: C_8  and  C_9
REMARK    5  A    between atoms: C_10  and  C_12
REMARK    6  A    between atoms: C_10  and  O_13
REMARK    7  A    between atoms: C_11  and  C_12
REMARK                            x       y       z     vdW  Elec       q    Type
REMARK                         _______ _______ _______ _____ _____    ______ ____
ROOT
ATOM      1  C   UNL A   1      81.810  69.016  68.280  0.00  0.00    +0.127 A 
ATOM      2  C   UNL A   1      82.992  69.764  68.054  0.00  0.00    -0.009 A 
ATOM      3  C   UNL A   1      83.315  70.711  66.923  0.00  0.00    +0.048 C 
ATOM      4  C   UNL A   1      84.080  69.585  68.942  0.00  0.00    +0.007 A 
ATOM      5  C   UNL A   1      84.007  68.737  70.036  0.00  0.00    +0.001 A 
ATOM      6  C   UNL A   1      82.839  68.034  70.278  0.00  0.00    +0.007 A 
ATOM      7  C   UNL A   1      81.740  68.160  69.413  0.00  0.00    -0.009 A 
ATOM      8  C   UNL A   1      80.499  67.364  69.732  0.00  0.00    +0.048 C 
ENDROOT
BRANCH   1   9
ATOM      9  O   UNL A   1      80.659  68.965  67.513  0.00  0.00    -0.486 OA
BRANCH   9  10
ATOM     10  C   UNL A   1      80.711  68.226  66.307  0.00  0.00    +0.282 C 
BRANCH  10  12
ATOM     11  C   UNL A   1      78.300  68.786  66.132  0.00  0.00    +0.067 C 
ATOM     12  C   UNL A   1      79.340  67.702  65.837  0.00  0.00    +0.096 C 
BRANCH  12  13
ATOM     13  N   UNL A   1      78.953  66.465  66.528  0.00  0.00    +0.223 N 
ATOM     14  H   UNL A   1      78.227  65.989  65.993  0.00  0.00    +0.200 HD
ATOM     15  H   UNL A   1      78.599  66.691  67.457  0.00  0.00    +0.200 HD
ATOM     16  H   UNL A   1      79.767  65.855  66.614  0.00  0.00    +0.200 HD
ENDBRANCH  12  13
ENDBRANCH  10  12
ENDBRANCH   9  10
ENDBRANCH   1   9
TORSDOF 4
ENDMDL
MODEL 6
REMARK VINA RESULT:      -5.8      2.040      3.618
REMARK  Name = mexiletine.pdb
REMARK  7 active torsions:
REMARK  status: ('A' for Active; 'I' for Inactive)
REMARK    1  A    between atoms: N_1  and  C_12
REMARK    2  A    between atoms: C_2  and  O_13
REMARK    3  A    between atoms: C_3  and  C_4
REMARK    4  A    between atoms: C_8  and  C_9
REMARK    5  A    between atoms: C_10  and  C_12
REMARK    6  A    between atoms: C_10  and  O_13
REMARK    7  A    between atoms: C_11  and  C_12
REMARK                            x       y       z     vdW  Elec       q    Type
REMARK                         _______ _______ _______ _____ _____    ______ ____
ROOT
ATOM      1  C   UNL A   1      81.870  68.839  68.189  0.00  0.00    +0.127 A 
ATOM      2  C   UNL A   1      81.741  68.041  69.352  0.00  0.00    -0.009 A 
ATOM      3  C   UNL A   1      80.593  67.154  69.771  0.00  0.00    +0.048 C 
ATOM      4  C   UNL A   1      82.769  68.098  70.324  0.00  0.00    +0.007 A 
ATOM      5  C   UNL A   1      83.904  68.875  70.152  0.00  0.00    +0.001 A 
ATOM      6  C   UNL A   1      84.048  69.626  68.998  0.00  0.00    +0.007 A 
ATOM      7  C   UNL A   1      83.046  69.621  68.014  0.00  0.00    -0.009 A 
ATOM      8  C   UNL A   1      83.264  70.465  66.783  0.00  0.00    +0.048 C 
ENDROOT
BRANCH   1   9
ATOM      9  O   UNL A   1      80.971  69.007  67.150  0.00  0.00    -0.486 OA
BRANCH   9  10
ATOM     10  C   UNL A   1      80.838  67.946  66.224  0.00  0.00    +0.282 C 
BRANCH  10  12
ATOM     11  C   UNL A   1      78.525  68.844  66.163  0.00  0.00    +0.067 C 
ATOM     12  C   UNL A   1      79.377  67.606  65.870  0.00  0.00    +0.096 C 
BRANCH  12  13
ATOM     13  N   UNL A   1      78.866  66.474  66.656  0.00  0.00    +0.223 N 
ATOM     14  H   UNL A   1      78.641  65.701  66.031  0.00  0.00    +0.200 HD
ATOM     15  H   UNL A   1      78.025  66.762  67.158  0.00  0.00    +0.200 HD
ATOM     16  H   UNL A   1      79.576  66.177  67.324  0.00  0.00    +0.200 HD
ENDBRANCH  12  13
ENDBRANCH  10  12
ENDBRANCH   9  10
ENDBRANCH   1   9
TORSDOF 4
ENDMDL
MODEL 7
REMARK VINA RESULT:      -5.7     48.511     50.382
REMARK  Name = mexiletine.pdb
REMARK  7 active torsions:
REMARK  status: ('A' for Active; 'I' for Inactive)
REMARK    1  A    between atoms: N_1  and  C_12
REMARK    2  A    between atoms: C_2  and  O_13
REMARK    3  A    between atoms: C_3  and  C_4
REMARK    4  A    between atoms: C_8  and  C_9
REMARK    5  A    between atoms: C_10  and  C_12
REMARK    6  A    between atoms: C_10  and  O_13
REMARK    7  A    between atoms: C_11  and  C_12
REMARK                            x       y       z     vdW  Elec       q    Type
REMARK                         _______ _______ _______ _____ _____    ______ ____
ROOT
ATOM      1  C   UNL A   1      69.431  86.428 113.664  0.00  0.00    +0.127 A 
ATOM      2  C   UNL A   1      68.958  85.140 114.013  0.00  0.00    -0.009 A 
ATOM      3  C   UNL A   1      68.850  84.505 115.379  0.00  0.00    +0.048 C 
ATOM      4  C   UNL A   1      68.587  84.256 112.971  0.00  0.00    +0.007 A 
ATOM      5  C   UNL A   1      68.636  84.627 111.636  0.00  0.00    +0.001 A 
ATOM      6  C   UNL A   1      69.063  85.900 111.298  0.00  0.00    +0.007 A 
ATOM      7  C   UNL A   1      69.464  86.806 112.293  0.00  0.00    -0.009 A 
ATOM      8  C   UNL A   1      69.922  88.174 111.856  0.00  0.00    +0.048 C 
ENDROOT
BRANCH   1   9
ATOM      9  O   UNL A   1      69.919  87.424 114.492  0.00  0.00    -0.486 OA
BRANCH   9  10
ATOM     10  C   UNL A   1      68.977  88.288 115.099  0.00  0.00    +0.282 C 
BRANCH  10  12
ATOM     11  C   UNL A   1      67.796  87.551 117.153  0.00  0.00    +0.067 C 
ATOM     12  C   UNL A   1      69.033  88.292 116.639  0.00  0.00    +0.096 C 
BRANCH  12  13
ATOM     13  N   UNL A   1      69.039  89.655 117.189  0.00  0.00    +0.223 N 
ATOM     14  H   UNL A   1      69.801  89.747 117.861  0.00  0.00    +0.200 HD
ATOM     15  H   UNL A   1      68.150  89.837 117.655  0.00  0.00    +0.200 HD
ATOM     16  H   UNL A   1      69.171  90.326 116.432  0.00  0.00    +0.200 HD
ENDBRANCH  12  13
ENDBRANCH  10  12
ENDBRANCH   9  10
ENDBRANCH   1   9
TORSDOF 4
ENDMDL
MODEL 8
REMARK VINA RESULT:      -5.7     15.486     16.834
REMARK  Name = mexiletine.pdb
REMARK  7 active torsions:
REMARK  status: ('A' for Active; 'I' for Inactive)
REMARK    1  A    between atoms: N_1  and  C_12
REMARK    2  A    between atoms: C_2  and  O_13
REMARK    3  A    between atoms: C_3  and  C_4
REMARK    4  A    between atoms: C_8  and  C_9
REMARK    5  A    between atoms: C_10  and  C_12
REMARK    6  A    between atoms: C_10  and  O_13
REMARK    7  A    between atoms: C_11  and  C_12
REMARK                            x       y       z     vdW  Elec       q    Type
REMARK                         _______ _______ _______ _____ _____    ______ ____
ROOT
ATOM      1  C   UNL A   1      74.089  74.211  82.452  0.00  0.00    +0.127 A 
ATOM      2  C   UNL A   1      75.035  73.236  82.852  0.00  0.00    -0.009 A 
ATOM      3  C   UNL A   1      74.846  72.047  83.763  0.00  0.00    +0.048 C 
ATOM      4  C   UNL A   1      76.377  73.388  82.426  0.00  0.00    +0.007 A 
ATOM      5  C   UNL A   1      76.777  74.431  81.604  0.00  0.00    +0.001 A 
ATOM      6  C   UNL A   1      75.844  75.362  81.182  0.00  0.00    +0.007 A 
ATOM      7  C   UNL A   1      74.505  75.269  81.597  0.00  0.00    -0.009 A 
ATOM      8  C   UNL A   1      73.542  76.319  81.104  0.00  0.00    +0.048 C 
ENDROOT
BRANCH   1   9
ATOM      9  O   UNL A   1      72.755  74.317  82.803  0.00  0.00    -0.486 OA
BRANCH   9  10
ATOM     10  C   UNL A   1      71.857  73.374  82.249  0.00  0.00    +0.282 C 
BRANCH  10  12
ATOM     11  C   UNL A   1      70.264  74.782  80.970  0.00  0.00    +0.067 C 
ATOM     12  C   UNL A   1      70.397  73.862  82.187  0.00  0.00    +0.096 C 
BRANCH  12  13
ATOM     13  N   UNL A   1      70.011  74.604  83.395  0.00  0.00    +0.223 N 
ATOM     14  H   UNL A   1      69.002  74.535  83.528  0.00  0.00    +0.200 HD
ATOM     15  H   UNL A   1      70.274  75.584  83.290  0.00  0.00    +0.200 HD
ATOM     16  H   UNL A   1      70.488  74.208  84.204  0.00  0.00    +0.200 HD
ENDBRANCH  12  13
ENDBRANCH  10  12
ENDBRANCH   9  10
ENDBRANCH   1   9
TORSDOF 4
ENDMDL
MODEL 9
REMARK VINA RESULT:      -5.7     40.697     42.406
REMARK  Name = mexiletine.pdb
REMARK  7 active torsions:
REMARK  status: ('A' for Active; 'I' for Inactive)
REMARK    1  A    between atoms: N_1  and  C_12
REMARK    2  A    between atoms: C_2  and  O_13
REMARK    3  A    between atoms: C_3  and  C_4
REMARK    4  A    between atoms: C_8  and  C_9
REMARK    5  A    between atoms: C_10  and  C_12
REMARK    6  A    between atoms: C_10  and  O_13
REMARK    7  A    between atoms: C_11  and  C_12
REMARK                            x       y       z     vdW  Elec       q    Type
REMARK                         _______ _______ _______ _____ _____    ______ ____
ROOT
ATOM      1  C   UNL A   1      73.687  60.012 109.402  0.00  0.00    +0.127 A 
ATOM      2  C   UNL A   1      72.631  60.930 109.617  0.00  0.00    -0.009 A 
ATOM      3  C   UNL A   1      71.657  61.004 110.768  0.00  0.00    +0.048 C 
ATOM      4  C   UNL A   1      72.360  61.890 108.612  0.00  0.00    +0.007 A 
ATOM      5  C   UNL A   1      73.119  61.980 107.454  0.00  0.00    +0.001 A 
ATOM      6  C   UNL A   1      74.175  61.107 107.262  0.00  0.00    +0.007 A 
ATOM      7  C   UNL A   1      74.469  60.122 108.219  0.00  0.00    -0.009 A 
ATOM      8  C   UNL A   1      75.631  59.200 107.944  0.00  0.00    +0.048 C 
ENDROOT
BRANCH   1   9
ATOM      9  O   UNL A   1      74.084  58.949 110.194  0.00  0.00    -0.486 OA
BRANCH   9  10
ATOM     10  C   UNL A   1      74.498  59.239 111.516  0.00  0.00    +0.282 C 
BRANCH  10  12
ATOM     11  C   UNL A   1      76.865  58.909 112.186  0.00  0.00    +0.067 C 
ATOM     12  C   UNL A   1      75.876  59.923 111.603  0.00  0.00    +0.096 C 
BRANCH  12  13
ATOM     13  N   UNL A   1      75.849  61.115 112.462  0.00  0.00    +0.223 N 
ATOM     14  H   UNL A   1      75.857  60.829 113.440  0.00  0.00    +0.200 HD
ATOM     15  H   UNL A   1      75.003  61.652 112.271  0.00  0.00    +0.200 HD
ATOM     16  H   UNL A   1      76.668  61.691 112.269  0.00  0.00    +0.200 HD
ENDBRANCH  12  13
ENDBRANCH  10  12
ENDBRANCH   9  10
ENDBRANCH   1   9
TORSDOF 4
ENDMDL
MODEL 10
REMARK VINA RESULT:      -5.7     32.282     33.811
REMARK  Name = mexiletine.pdb
REMARK  7 active torsions:
REMARK  status: ('A' for Active; 'I' for Inactive)
REMARK    1  A    between atoms: N_1  and  C_12
REMARK    2  A    between atoms: C_2  and  O_13
REMARK    3  A    between atoms: C_3  and  C_4
REMARK    4  A    between atoms: C_8  and  C_9
REMARK    5  A    between atoms: C_10  and  C_12
REMARK    6  A    between atoms: C_10  and  O_13
REMARK    7  A    between atoms: C_11  and  C_12
REMARK                            x       y       z     vdW  Elec       q    Type
REMARK                         _______ _______ _______ _____ _____    ______ ____
ROOT
ATOM      1  C   UNL A   1      82.443  54.781  38.520  0.00  0.00    +0.127 A 
ATOM      2  C   UNL A   1      83.439  54.417  37.580  0.00  0.00    -0.009 A 
ATOM      3  C   UNL A   1      84.013  55.228  36.444  0.00  0.00    +0.048 C 
ATOM      4  C   UNL A   1      83.950  53.097  37.621  0.00  0.00    +0.007 A 
ATOM      5  C   UNL A   1      83.537  52.175  38.570  0.00  0.00    +0.001 A 
ATOM      6  C   UNL A   1      82.592  52.543  39.512  0.00  0.00    +0.007 A 
ATOM      7  C   UNL A   1      82.037  53.833  39.499  0.00  0.00    -0.009 A 
ATOM      8  C   UNL A   1      81.009  54.166  40.551  0.00  0.00    +0.048 C 
ENDROOT
BRANCH   1   9
ATOM      9  O   UNL A   1      81.746  55.972  38.624  0.00  0.00    -0.486 OA
BRANCH   9  10
ATOM     10  C   UNL A   1      80.868  56.309  37.567  0.00  0.00    +0.282 C 
BRANCH  10  12
ATOM     11  C   UNL A   1      79.459  57.195  39.408  0.00  0.00    +0.067 C 
ATOM     12  C   UNL A   1      79.415  56.555  38.017  0.00  0.00    +0.096 C 
BRANCH  12  13
ATOM     13  N   UNL A   1      78.638  55.310  38.086  0.00  0.00    +0.223 N 
ATOM     14  H   UNL A   1      77.657  55.530  38.255  0.00  0.00    +0.200 HD
ATOM     15  H   UNL A   1      78.993  54.730  38.847  0.00  0.00    +0.200 HD
ATOM     16  H   UNL A   1      78.727  54.805  37.204  0.00  0.00    +0.200 HD
ENDBRANCH  12  13
ENDBRANCH  10  12
ENDBRANCH   9  10
ENDBRANCH   1   9
TORSDOF 4
ENDMDL
MODEL 11
REMARK VINA RESULT:      -5.6     40.972     42.714
REMARK  Name = mexiletine.pdb
REMARK  7 active torsions:
REMARK  status: ('A' for Active; 'I' for Inactive)
REMARK    1  A    between atoms: N_1  and  C_12
REMARK    2  A    between atoms: C_2  and  O_13
REMARK    3  A    between atoms: C_3  and  C_4
REMARK    4  A    between atoms: C_8  and  C_9
REMARK    5  A    between atoms: C_10  and  C_12
REMARK    6  A    between atoms: C_10  and  O_13
REMARK    7  A    between atoms: C_11  and  C_12
REMARK                            x       y       z     vdW  Elec       q    Type
REMARK                         _______ _______ _______ _____ _____    ______ ____
ROOT
ATOM      1  C   UNL A   1      74.375  60.870 109.632  0.00  0.00    +0.127 A 
ATOM      2  C   UNL A   1      75.286  59.805 109.428  0.00  0.00    -0.009 A 
ATOM      3  C   UNL A   1      76.219  59.150 110.418  0.00  0.00    +0.048 C 
ATOM      4  C   UNL A   1      75.436  59.292 108.116  0.00  0.00    +0.007 A 
ATOM      5  C   UNL A   1      74.694  59.771 107.047  0.00  0.00    +0.001 A 
ATOM      6  C   UNL A   1      73.776  60.786 107.255  0.00  0.00    +0.007 A 
ATOM      7  C   UNL A   1      73.607  61.344 108.533  0.00  0.00    -0.009 A 
ATOM      8  C   UNL A   1      72.594  62.450 108.689  0.00  0.00    +0.048 C 
ENDROOT
BRANCH   1   9
ATOM      9  O   UNL A   1      74.118  61.578 110.793  0.00  0.00    -0.486 OA
BRANCH   9  10
ATOM     10  C   UNL A   1      73.413  60.910 111.822  0.00  0.00    +0.282 C 
BRANCH  10  12
ATOM     11  C   UNL A   1      73.396  61.113 114.295  0.00  0.00    +0.067 C 
ATOM     12  C   UNL A   1      74.243  60.673 113.098  0.00  0.00    +0.096 C 
BRANCH  12  13
ATOM     13  N   UNL A   1      75.498  61.438 113.091  0.00  0.00    +0.223 N 
ATOM     14  H   UNL A   1      75.493  62.107 113.860  0.00  0.00    +0.200 HD
ATOM     15  H   UNL A   1      75.587  61.938 112.206  0.00  0.00    +0.200 HD
ATOM     16  H   UNL A   1      76.285  60.800 113.201  0.00  0.00    +0.200 HD
ENDBRANCH  12  13
ENDBRANCH  10  12
ENDBRANCH   9  10
ENDBRANCH   1   9
TORSDOF 4
ENDMDL
MODEL 12
REMARK VINA RESULT:      -5.6     39.735     41.439
REMARK  Name = mexiletine.pdb
REMARK  7 active torsions:
REMARK  status: ('A' for Active; 'I' for Inactive)
REMARK    1  A    between atoms: N_1  and  C_12
REMARK    2  A    between atoms: C_2  and  O_13
REMARK    3  A    between atoms: C_3  and  C_4
REMARK    4  A    between atoms: C_8  and  C_9
REMARK    5  A    between atoms: C_10  and  C_12
REMARK    6  A    between atoms: C_10  and  O_13
REMARK    7  A    between atoms: C_11  and  C_12
REMARK                            x       y       z     vdW  Elec       q    Type
REMARK                         _______ _______ _______ _____ _____    ______ ____
ROOT
ATOM      1  C   UNL A   1      74.268  60.889 108.597  0.00  0.00    +0.127 A 
ATOM      2  C   UNL A   1      73.250  61.784 108.186  0.00  0.00    -0.009 A 
ATOM      3  C   UNL A   1      72.451  62.760 109.015  0.00  0.00    +0.048 C 
ATOM      4  C   UNL A   1      72.835  61.752 106.832  0.00  0.00    +0.007 A 
ATOM      5  C   UNL A   1      73.419  60.905 105.901  0.00  0.00    +0.001 A 
ATOM      6  C   UNL A   1      74.439  60.057 106.296  0.00  0.00    +0.007 A 
ATOM      7  C   UNL A   1      74.871  60.035 107.632  0.00  0.00    -0.009 A 
ATOM      8  C   UNL A   1      75.984  59.085 107.996  0.00  0.00    +0.048 C 
ENDROOT
BRANCH   1   9
ATOM      9  O   UNL A   1      74.778  60.684 109.868  0.00  0.00    -0.486 OA
BRANCH   9  10
ATOM     10  C   UNL A   1      73.884  60.224 110.864  0.00  0.00    +0.282 C 
BRANCH  10  12
ATOM     11  C   UNL A   1      71.716  59.092 111.282  0.00  0.00    +0.067 C 
ATOM     12  C   UNL A   1      72.966  59.078 110.397  0.00  0.00    +0.096 C 
BRANCH  12  13
ATOM     13  N   UNL A   1      73.618  57.766 110.508  0.00  0.00    +0.223 N 
ATOM     14  H   UNL A   1      73.115  57.192 111.185  0.00  0.00    +0.200 HD
ATOM     15  H   UNL A   1      74.582  57.891 110.817  0.00  0.00    +0.200 HD
ATOM     16  H   UNL A   1      73.609  57.305 109.599  0.00  0.00    +0.200 HD
ENDBRANCH  12  13
ENDBRANCH  10  12
ENDBRANCH   9  10
ENDBRANCH   1   9
TORSDOF 4
ENDMDL
MODEL 13
REMARK VINA RESULT:      -5.5     36.388     37.938
REMARK  Name = mexiletine.pdb
REMARK  7 active torsions:
REMARK  status: ('A' for Active; 'I' for Inactive)
REMARK    1  A    between atoms: N_1  and  C_12
REMARK    2  A    between atoms: C_2  and  O_13
REMARK    3  A    between atoms: C_3  and  C_4
REMARK    4  A    between atoms: C_8  and  C_9
REMARK    5  A    between atoms: C_10  and  C_12
REMARK    6  A    between atoms: C_10  and  O_13
REMARK    7  A    between atoms: C_11  and  C_12
REMARK                            x       y       z     vdW  Elec       q    Type
REMARK                         _______ _______ _______ _____ _____    ______ ____
ROOT
ATOM      1  C   UNL A   1      89.849  76.440 105.490  0.00  0.00    +0.127 A 
ATOM      2  C   UNL A   1      89.036  76.742 106.610  0.00  0.00    -0.009 A 
ATOM      3  C   UNL A   1      89.103  77.930 107.539  0.00  0.00    +0.048 C 
ATOM      4  C   UNL A   1      88.053  75.800 107.000  0.00  0.00    +0.007 A 
ATOM      5  C   UNL A   1      87.841  74.623 106.299  0.00  0.00    +0.001 A 
ATOM      6  C   UNL A   1      88.611  74.345 105.183  0.00  0.00    +0.007 A 
ATOM      7  C   UNL A   1      89.614  75.237 104.769  0.00  0.00    -0.009 A 
ATOM      8  C   UNL A   1      90.419  74.872 103.547  0.00  0.00    +0.048 C 
ENDROOT
BRANCH   1   9
ATOM      9  O   UNL A   1      90.913  77.159 104.975  0.00  0.00    -0.486 OA
BRANCH   9  10
ATOM     10  C   UNL A   1      90.615  78.344 104.261  0.00  0.00    +0.282 C 
BRANCH  10  12
ATOM     11  C   UNL A   1      92.518  77.791 102.768  0.00  0.00    +0.067 C 
ATOM     12  C   UNL A   1      91.082  78.323 102.793  0.00  0.00    +0.096 C 
BRANCH  12  13
ATOM     13  N   UNL A   1      91.056  79.660 102.184  0.00  0.00    +0.223 N 
ATOM     14  H   UNL A   1      90.302  80.207 102.598  0.00  0.00    +0.200 HD
ATOM     15  H   UNL A   1      90.901  79.574 101.179  0.00  0.00    +0.200 HD
ATOM     16  H   UNL A   1      91.947  80.127 102.352  0.00  0.00    +0.200 HD
ENDBRANCH  12  13
ENDBRANCH  10  12
ENDBRANCH   9  10
ENDBRANCH   1   9
TORSDOF 4
ENDMDL
MODEL 14
REMARK VINA RESULT:      -5.5     39.588     41.303
REMARK  Name = mexiletine.pdb
REMARK  7 active torsions:
REMARK  status: ('A' for Active; 'I' for Inactive)
REMARK    1  A    between atoms: N_1  and  C_12
REMARK    2  A    between atoms: C_2  and  O_13
REMARK    3  A    between atoms: C_3  and  C_4
REMARK    4  A    between atoms: C_8  and  C_9
REMARK    5  A    between atoms: C_10  and  C_12
REMARK    6  A    between atoms: C_10  and  O_13
REMARK    7  A    between atoms: C_11  and  C_12
REMARK                            x       y       z     vdW  Elec       q    Type
REMARK                         _______ _______ _______ _____ _____    ______ ____
ROOT
ATOM      1  C   UNL A   1      74.246  61.021 108.463  0.00  0.00    +0.127 A 
ATOM      2  C   UNL A   1      74.869  60.069 107.620  0.00  0.00    -0.009 A 
ATOM      3  C   UNL A   1      75.993  59.112 107.937  0.00  0.00    +0.048 C 
ATOM      4  C   UNL A   1      74.471  60.011 106.262  0.00  0.00    +0.007 A 
ATOM      5  C   UNL A   1      73.472  60.825 105.751  0.00  0.00    +0.001 A 
ATOM      6  C   UNL A   1      72.837  61.730 106.584  0.00  0.00    +0.007 A 
ATOM      7  C   UNL A   1      73.211  61.841 107.933  0.00  0.00    -0.009 A 
ATOM      8  C   UNL A   1      72.482  62.850 108.784  0.00  0.00    +0.048 C 
ENDROOT
BRANCH   1   9
ATOM      9  O   UNL A   1      74.519  61.314 109.788  0.00  0.00    -0.486 OA
BRANCH   9  10
ATOM     10  C   UNL A   1      74.208  60.326 110.752  0.00  0.00    +0.282 C 
BRANCH  10  12
ATOM     11  C   UNL A   1      71.883  59.585 111.200  0.00  0.00    +0.067 C 
ATOM     12  C   UNL A   1      73.105  59.346 110.309  0.00  0.00    +0.096 C 
BRANCH  12  13
ATOM     13  N   UNL A   1      73.526  57.944 110.437  0.00  0.00    +0.223 N 
ATOM     14  H   UNL A   1      73.230  57.582 111.343  0.00  0.00    +0.200 HD
ATOM     15  H   UNL A   1      74.542  57.886 110.362  0.00  0.00    +0.200 HD
ATOM     16  H   UNL A   1      73.098  57.392 109.694  0.00  0.00    +0.200 HD
ENDBRANCH  12  13
ENDBRANCH  10  12
ENDBRANCH   9  10
ENDBRANCH   1   9
TORSDOF 4
ENDMDL
MODEL 15
REMARK VINA RESULT:      -5.5     29.012     30.666
REMARK  Name = mexiletine.pdb
REMARK  7 active torsions:
REMARK  status: ('A' for Active; 'I' for Inactive)
REMARK    1  A    between atoms: N_1  and  C_12
REMARK    2  A    between atoms: C_2  and  O_13
REMARK    3  A    between atoms: C_3  and  C_4
REMARK    4  A    between atoms: C_8  and  C_9
REMARK    5  A    between atoms: C_10  and  C_12
REMARK    6  A    between atoms: C_10  and  O_13
REMARK    7  A    between atoms: C_11  and  C_12
REMARK                            x       y       z     vdW  Elec       q    Type
REMARK                         _______ _______ _______ _____ _____    ______ ____
ROOT
ATOM      1  C   UNL A   1     111.686  74.427  71.352  0.00  0.00    +0.127 A 
ATOM      2  C   UNL A   1     110.838  73.423  70.824  0.00  0.00    -0.009 A 
ATOM      3  C   UNL A   1     109.822  72.566  71.540  0.00  0.00    +0.048 C 
ATOM      4  C   UNL A   1     110.969  73.084  69.456  0.00  0.00    +0.007 A 
ATOM      5  C   UNL A   1     111.867  73.729  68.618  0.00  0.00    +0.001 A 
ATOM      6  C   UNL A   1     112.669  74.737  69.126  0.00  0.00    +0.007 A 
ATOM      7  C   UNL A   1     112.592  75.094  70.482  0.00  0.00    -0.009 A 
ATOM      8  C   UNL A   1     113.497  76.198  70.970  0.00  0.00    +0.048 C 
ENDROOT
BRANCH   1   9
ATOM      9  O   UNL A   1     111.795  74.869  72.659  0.00  0.00    -0.486 OA
BRANCH   9  10
ATOM     10  C   UNL A   1     110.631  75.391  73.270  0.00  0.00    +0.282 C 
BRANCH  10  12
ATOM     11  C   UNL A   1     110.352  77.660  72.304  0.00  0.00    +0.067 C 
ATOM     12  C   UNL A   1     110.711  76.898  73.583  0.00  0.00    +0.096 C 
BRANCH  12  13
ATOM     13  N   UNL A   1     112.055  77.301  74.020  0.00  0.00    +0.223 N 
ATOM     14  H   UNL A   1     112.614  76.470  74.211  0.00  0.00    +0.200 HD
ATOM     15  H   UNL A   1     111.982  77.864  74.868  0.00  0.00    +0.200 HD
ATOM     16  H   UNL A   1     112.501  77.850  73.285  0.00  0.00    +0.200 HD
ENDBRANCH  12  13
ENDBRANCH  10  12
ENDBRANCH   9  10
ENDBRANCH   1   9
TORSDOF 4
ENDMDL
MODEL 16
REMARK VINA RESULT:      -5.5     35.707     37.030
REMARK  Name = mexiletine.pdb
REMARK  7 active torsions:
REMARK  status: ('A' for Active; 'I' for Inactive)
REMARK    1  A    between atoms: N_1  and  C_12
REMARK    2  A    between atoms: C_2  and  O_13
REMARK    3  A    between atoms: C_3  and  C_4
REMARK    4  A    between atoms: C_8  and  C_9
REMARK    5  A    between atoms: C_10  and  C_12
REMARK    6  A    between atoms: C_10  and  O_13
REMARK    7  A    between atoms: C_11  and  C_12
REMARK                            x       y       z     vdW  Elec       q    Type
REMARK                         _______ _______ _______ _____ _____    ______ ____
ROOT
ATOM      1  C   UNL A   1      83.230  32.720  62.583  0.00  0.00    +0.127 A 
ATOM      2  C   UNL A   1      84.573  32.453  62.948  0.00  0.00    -0.009 A 
ATOM      3  C   UNL A   1      85.102  31.468  63.962  0.00  0.00    +0.048 C 
ATOM      4  C   UNL A   1      85.596  33.237  62.364  0.00  0.00    +0.007 A 
ATOM      5  C   UNL A   1      85.327  34.222  61.425  0.00  0.00    +0.001 A 
ATOM      6  C   UNL A   1      84.018  34.457  61.041  0.00  0.00    +0.007 A 
ATOM      7  C   UNL A   1      82.965  33.721  61.608  0.00  0.00    -0.009 A 
ATOM      8  C   UNL A   1      81.563  34.031  61.148  0.00  0.00    +0.048 C 
ENDROOT
BRANCH   1   9
ATOM      9  O   UNL A   1      82.070  32.147  63.073  0.00  0.00    -0.486 OA
BRANCH   9  10
ATOM     10  C   UNL A   1      81.842  30.782  62.776  0.00  0.00    +0.282 C 
BRANCH  10  12
ATOM     11  C   UNL A   1      80.048  30.930  64.484  0.00  0.00    +0.067 C 
ATOM     12  C   UNL A   1      81.124  30.010  63.900  0.00  0.00    +0.096 C 
BRANCH  12  13
ATOM     13  N   UNL A   1      82.046  29.609  64.972  0.00  0.00    +0.223 N 
ATOM     14  H   UNL A   1      82.457  30.440  65.395  0.00  0.00    +0.200 HD
ATOM     15  H   UNL A   1      82.785  29.023  64.583  0.00  0.00    +0.200 HD
ATOM     16  H   UNL A   1      81.534  29.083  65.681  0.00  0.00    +0.200 HD
ENDBRANCH  12  13
ENDBRANCH  10  12
ENDBRANCH   9  10
ENDBRANCH   1   9
TORSDOF 4
ENDMDL
MODEL 17
REMARK VINA RESULT:      -5.5     51.938     53.569
REMARK  Name = mexiletine.pdb
REMARK  7 active torsions:
REMARK  status: ('A' for Active; 'I' for Inactive)
REMARK    1  A    between atoms: N_1  and  C_12
REMARK    2  A    between atoms: C_2  and  O_13
REMARK    3  A    between atoms: C_3  and  C_4
REMARK    4  A    between atoms: C_8  and  C_9
REMARK    5  A    between atoms: C_10  and  C_12
REMARK    6  A    between atoms: C_10  and  O_13
REMARK    7  A    between atoms: C_11  and  C_12
REMARK                            x       y       z     vdW  Elec       q    Type
REMARK                         _______ _______ _______ _____ _____    ______ ____
ROOT
ATOM      1  C   UNL A   1      66.863  85.445 117.328  0.00  0.00    +0.127 A 
ATOM      2  C   UNL A   1      67.550  84.233 117.579  0.00  0.00    -0.009 A 
ATOM      3  C   UNL A   1      68.925  83.809 117.123  0.00  0.00    +0.048 C 
ATOM      4  C   UNL A   1      66.873  83.212 118.291  0.00  0.00    +0.007 A 
ATOM      5  C   UNL A   1      65.586  83.381 118.778  0.00  0.00    +0.001 A 
ATOM      6  C   UNL A   1      64.929  84.581 118.565  0.00  0.00    +0.007 A 
ATOM      7  C   UNL A   1      65.548  85.615 117.845  0.00  0.00    -0.009 A 
ATOM      8  C   UNL A   1      64.775  86.894 117.646  0.00  0.00    +0.048 C 
ENDROOT
BRANCH   1   9
ATOM      9  O   UNL A   1      67.283  86.542 116.597  0.00  0.00    -0.486 OA
BRANCH   9  10
ATOM     10  C   UNL A   1      68.313  87.340 117.150  0.00  0.00    +0.282 C 
BRANCH  10  12
ATOM     11  C   UNL A   1      69.752  88.113 115.282  0.00  0.00    +0.067 C 
ATOM     12  C   UNL A   1      68.688  88.561 116.288  0.00  0.00    +0.096 C 
BRANCH  12  13
ATOM     13  N   UNL A   1      69.226  89.664 117.096  0.00  0.00    +0.223 N 
ATOM     14  H   UNL A   1      68.463  90.275 117.387  0.00  0.00    +0.200 HD
ATOM     15  H   UNL A   1      69.896  90.197 116.542  0.00  0.00    +0.200 HD
ATOM     16  H   UNL A   1      69.691  89.285 117.921  0.00  0.00    +0.200 HD
ENDBRANCH  12  13
ENDBRANCH  10  12
ENDBRANCH   9  10
ENDBRANCH   1   9
TORSDOF 4
ENDMDL
MODEL 18
REMARK VINA RESULT:      -5.5     22.191     23.845
REMARK  Name = mexiletine.pdb
REMARK  7 active torsions:
REMARK  status: ('A' for Active; 'I' for Inactive)
REMARK    1  A    between atoms: N_1  and  C_12
REMARK    2  A    between atoms: C_2  and  O_13
REMARK    3  A    between atoms: C_3  and  C_4
REMARK    4  A    between atoms: C_8  and  C_9
REMARK    5  A    between atoms: C_10  and  C_12
REMARK    6  A    between atoms: C_10  and  O_13
REMARK    7  A    between atoms: C_11  and  C_12
REMARK                            x       y       z     vdW  Elec       q    Type
REMARK                         _______ _______ _______ _____ _____    ______ ____
ROOT
ATOM      1  C   UNL A   1      77.903  83.679  87.055  0.00  0.00    +0.127 A 
ATOM      2  C   UNL A   1      78.903  82.838  87.600  0.00  0.00    -0.009 A 
ATOM      3  C   UNL A   1      79.168  82.490  89.045  0.00  0.00    +0.048 C 
ATOM      4  C   UNL A   1      79.859  82.274  86.720  0.00  0.00    +0.007 A 
ATOM      5  C   UNL A   1      79.819  82.489  85.351  0.00  0.00    +0.001 A 
ATOM      6  C   UNL A   1      78.818  83.281  84.814  0.00  0.00    +0.007 A 
ATOM      7  C   UNL A   1      77.860  83.881  85.647  0.00  0.00    -0.009 A 
ATOM      8  C   UNL A   1      76.800  84.735  84.998  0.00  0.00    +0.048 C 
ENDROOT
BRANCH   1   9
ATOM      9  O   UNL A   1      76.921  84.396  87.716  0.00  0.00    -0.486 OA
BRANCH   9  10
ATOM     10  C   UNL A   1      76.079  83.684  88.603  0.00  0.00    +0.282 C 
BRANCH  10  12
ATOM     11  C   UNL A   1      74.634  82.203  87.232  0.00  0.00    +0.067 C 
ATOM     12  C   UNL A   1      74.645  83.482  88.076  0.00  0.00    +0.096 C 
BRANCH  12  13
ATOM     13  N   UNL A   1      74.196  84.608  87.246  0.00  0.00    +0.223 N 
ATOM     14  H   UNL A   1      73.321  84.977  87.618  0.00  0.00    +0.200 HD
ATOM     15  H   UNL A   1      74.051  84.288  86.288  0.00  0.00    +0.200 HD
ATOM     16  H   UNL A   1      74.906  85.341  87.256  0.00  0.00    +0.200 HD
ENDBRANCH  12  13
ENDBRANCH  10  12
ENDBRANCH   9  10
ENDBRANCH   1   9
TORSDOF 4
ENDMDL
MODEL 19
REMARK VINA RESULT:      -5.5     10.121     10.750
REMARK  Name = mexiletine.pdb
REMARK  7 active torsions:
REMARK  status: ('A' for Active; 'I' for Inactive)
REMARK    1  A    between atoms: N_1  and  C_12
REMARK    2  A    between atoms: C_2  and  O_13
REMARK    3  A    between atoms: C_3  and  C_4
REMARK    4  A    between atoms: C_8  and  C_9
REMARK    5  A    between atoms: C_10  and  C_12
REMARK    6  A    between atoms: C_10  and  O_13
REMARK    7  A    between atoms: C_11  and  C_12
REMARK                            x       y       z     vdW  Elec       q    Type
REMARK                         _______ _______ _______ _____ _____    ______ ____
ROOT
ATOM      1  C   UNL A   1      73.757  74.263  71.171  0.00  0.00    +0.127 A 
ATOM      2  C   UNL A   1      73.743  74.440  69.766  0.00  0.00    -0.009 A 
ATOM      3  C   UNL A   1      72.568  74.426  68.819  0.00  0.00    +0.048 C 
ATOM      4  C   UNL A   1      74.982  74.585  69.095  0.00  0.00    +0.007 A 
ATOM      5  C   UNL A   1      76.191  74.597  69.774  0.00  0.00    +0.001 A 
ATOM      6  C   UNL A   1      76.202  74.461  71.151  0.00  0.00    +0.007 A 
ATOM      7  C   UNL A   1      75.001  74.292  71.860  0.00  0.00    -0.009 A 
ATOM      8  C   UNL A   1      75.084  74.145  73.359  0.00  0.00    +0.048 C 
ENDROOT
BRANCH   1   9
ATOM      9  O   UNL A   1      72.693  74.026  72.023  0.00  0.00    -0.486 OA
BRANCH   9  10
ATOM     10  C   UNL A   1      71.752  75.069  72.198  0.00  0.00    +0.282 C 
BRANCH  10  12
ATOM     11  C   UNL A   1      71.676  74.600  74.633  0.00  0.00    +0.067 C 
ATOM     12  C   UNL A   1      70.809  74.866  73.399  0.00  0.00    +0.096 C 
BRANCH  12  13
ATOM     13  N   UNL A   1      69.896  73.731  73.201  0.00  0.00    +0.223 N 
ATOM     14  H   UNL A   1      70.114  73.270  72.318  0.00  0.00    +0.200 HD
ATOM     15  H   UNL A   1      68.934  74.069  73.179  0.00  0.00    +0.200 HD
ATOM     16  H   UNL A   1      70.007  73.068  73.968  0.00  0.00    +0.200 HD
ENDBRANCH  12  13
ENDBRANCH  10  12
ENDBRANCH   9  10
ENDBRANCH   1   9
TORSDOF 4
ENDMDL
MODEL 20
REMARK VINA RESULT:      -5.4     10.143     11.042
REMARK  Name = mexiletine.pdb
REMARK  7 active torsions:
REMARK  status: ('A' for Active; 'I' for Inactive)
REMARK    1  A    between atoms: N_1  and  C_12
REMARK    2  A    between atoms: C_2  and  O_13
REMARK    3  A    between atoms: C_3  and  C_4
REMARK    4  A    between atoms: C_8  and  C_9
REMARK    5  A    between atoms: C_10  and  C_12
REMARK    6  A    between atoms: C_10  and  O_13
REMARK    7  A    between atoms: C_11  and  C_12
REMARK                            x       y       z     vdW  Elec       q    Type
REMARK                         _______ _______ _______ _____ _____    ______ ____
ROOT
ATOM      1  C   UNL A   1      73.747  74.323  71.127  0.00  0.00    +0.127 A 
ATOM      2  C   UNL A   1      74.959  74.264  71.856  0.00  0.00    -0.009 A 
ATOM      3  C   UNL A   1      75.166  74.103  73.343  0.00  0.00    +0.048 C 
ATOM      4  C   UNL A   1      76.176  74.445  71.154  0.00  0.00    +0.007 A 
ATOM      5  C   UNL A   1      76.213  74.638  69.781  0.00  0.00    +0.001 A 
ATOM      6  C   UNL A   1      75.030  74.658  69.063  0.00  0.00    +0.007 A 
ATOM      7  C   UNL A   1      73.796  74.505  69.717  0.00  0.00    -0.009 A 
ATOM      8  C   UNL A   1      72.545  74.542  68.875  0.00  0.00    +0.048 C 
ENDROOT
BRANCH   1   9
ATOM      9  O   UNL A   1      72.448  74.254  71.600  0.00  0.00    -0.486 OA
BRANCH   9  10
ATOM     10  C   UNL A   1      71.944  75.381  72.290  0.00  0.00    +0.282 C 
BRANCH  10  12
ATOM     11  C   UNL A   1      71.746  74.603  74.638  0.00  0.00    +0.067 C 
ATOM     12  C   UNL A   1      70.942  75.033  73.408  0.00  0.00    +0.096 C 
BRANCH  12  13
ATOM     13  N   UNL A   1      70.038  73.942  73.020  0.00  0.00    +0.223 N 
ATOM     14  H   UNL A   1      70.535  73.285  72.420  0.00  0.00    +0.200 HD
ATOM     15  H   UNL A   1      69.239  74.326  72.515  0.00  0.00    +0.200 HD
ATOM     16  H   UNL A   1      69.711  73.459  73.856  0.00  0.00    +0.200 HD
ENDBRANCH  12  13
ENDBRANCH  10  12
ENDBRANCH   9  10
ENDBRANCH   1   9
TORSDOF 4
ENDMDL
