MODEL 1
REMARK VINA RESULT:      -6.3      0.000      0.000
REMARK  Name = mexiletine.pdb
REMARK  7 active torsions:
REMARK  status: ('A' for Active; 'I' for Inactive)
REMARK    1  A    between atoms: N_1  and  C_12
REMARK    2  A    between atoms: C_2  and  O_13
REMARK    3  A    between atoms: C_3  and  C_4
REMARK    4  A    between atoms: C_8  and  C_9
REMARK    5  A    between atoms: C_10  and  C_12
REMARK    6  A    between atoms: C_10  and  O_13
REMARK    7  A    between atoms: C_11  and  C_12
REMARK                            x       y       z     vdW  Elec       q    Type
REMARK                         _______ _______ _______ _____ _____    ______ ____
ROOT
ATOM      1  C   UNL A   1      77.990  81.817  88.178  0.00  0.00    +0.127 A 
ATOM      2  C   UNL A   1      79.273  82.389  88.364  0.00  0.00    -0.009 A 
ATOM      3  C   UNL A   1      79.804  83.712  87.867  0.00  0.00    +0.048 C 
ATOM      4  C   UNL A   1      80.255  81.628  89.043  0.00  0.00    +0.007 A 
ATOM      5  C   UNL A   1      79.987  80.369  89.558  0.00  0.00    +0.001 A 
ATOM      6  C   UNL A   1      78.723  79.826  89.409  0.00  0.00    +0.007 A 
ATOM      7  C   UNL A   1      77.720  80.532  88.724  0.00  0.00    -0.009 A 
ATOM      8  C   UNL A   1      76.366  79.881  88.593  0.00  0.00    +0.048 C 
ENDROOT
BRANCH   1   9
ATOM      9  O   UNL A   1      76.907  82.331  87.487  0.00  0.00    -0.486 OA
BRANCH   9  10
ATOM     10  C   UNL A   1      76.319  83.519  87.984  0.00  0.00    +0.282 C 
BRANCH  10  12
ATOM     11  C   UNL A   1      76.815  84.580  85.796  0.00  0.00    +0.067 C 
ATOM     12  C   UNL A   1      75.750  84.440  86.888  0.00  0.00    +0.096 C 
BRANCH  12  13
ATOM     13  N   UNL A   1      75.415  85.773  87.405  0.00  0.00    +0.223 N 
ATOM     14  H   UNL A   1      75.280  85.723  88.414  0.00  0.00    +0.200 HD
ATOM     15  H   UNL A   1      74.556  86.103  86.963  0.00  0.00    +0.200 HD
ATOM     16  H   UNL A   1      76.175  86.420  87.195  0.00  0.00    +0.200 HD
ENDBRANCH  12  13
ENDBRANCH  10  12
ENDBRANCH   9  10
ENDBRANCH   1   9
TORSDOF 4
ENDMDL
MODEL 2
REMARK VINA RESULT:      -6.3      0.786      2.456
REMARK  Name = mexiletine.pdb
REMARK  7 active torsions:
REMARK  status: ('A' for Active; 'I' for Inactive)
REMARK    1  A    between atoms: N_1  and  C_12
REMARK    2  A    between atoms: C_2  and  O_13
REMARK    3  A    between atoms: C_3  and  C_4
REMARK    4  A    between atoms: C_8  and  C_9
REMARK    5  A    between atoms: C_10  and  C_12
REMARK    6  A    between atoms: C_10  and  O_13
REMARK    7  A    between atoms: C_11  and  C_12
REMARK                            x       y       z     vdW  Elec       q    Type
REMARK                         _______ _______ _______ _____ _____    ______ ____
ROOT
ATOM      1  C   UNL A   1      78.260  81.912  88.302  0.00  0.00    +0.127 A 
ATOM      2  C   UNL A   1      77.357  80.827  88.417  0.00  0.00    -0.009 A 
ATOM      3  C   UNL A   1      75.916  80.740  87.974  0.00  0.00    +0.048 C 
ATOM      4  C   UNL A   1      77.790  79.662  89.095  0.00  0.00    +0.007 A 
ATOM      5  C   UNL A   1      79.072  79.542  89.610  0.00  0.00    +0.001 A 
ATOM      6  C   UNL A   1      79.966  80.588  89.464  0.00  0.00    +0.007 A 
ATOM      7  C   UNL A   1      79.578  81.774  88.819  0.00  0.00    -0.009 A 
ATOM      8  C   UNL A   1      80.600  82.876  88.698  0.00  0.00    +0.048 C 
ENDROOT
BRANCH   1   9
ATOM      9  O   UNL A   1      78.041  83.166  87.758  0.00  0.00    -0.486 OA
BRANCH   9  10
ATOM     10  C   UNL A   1      76.904  83.882  88.204  0.00  0.00    +0.282 C 
BRANCH  10  12
ATOM     11  C   UNL A   1      76.756  84.314  85.765  0.00  0.00    +0.067 C 
ATOM     12  C   UNL A   1      75.955  84.316  87.071  0.00  0.00    +0.096 C 
BRANCH  12  13
ATOM     13  N   UNL A   1      75.405  85.660  87.294  0.00  0.00    +0.223 N 
ATOM     14  H   UNL A   1      75.740  86.020  88.187  0.00  0.00    +0.200 HD
ATOM     15  H   UNL A   1      74.386  85.612  87.307  0.00  0.00    +0.200 HD
ATOM     16  H   UNL A   1      75.706  86.279  86.542  0.00  0.00    +0.200 HD
ENDBRANCH  12  13
ENDBRANCH  10  12
ENDBRANCH   9  10
ENDBRANCH   1   9
TORSDOF 4
ENDMDL
MODEL 3
REMARK VINA RESULT:      -6.2      0.944      2.628
REMARK  Name = mexiletine.pdb
REMARK  7 active torsions:
REMARK  status: ('A' for Active; 'I' for Inactive)
REMARK    1  A    between atoms: N_1  and  C_12
REMARK    2  A    between atoms: C_2  and  O_13
REMARK    3  A    between atoms: C_3  and  C_4
REMARK    4  A    between atoms: C_8  and  C_9
REMARK    5  A    between atoms: C_10  and  C_12
REMARK    6  A    between atoms: C_10  and  O_13
REMARK    7  A    between atoms: C_11  and  C_12
REMARK                            x       y       z     vdW  Elec       q    Type
REMARK                         _______ _______ _______ _____ _____    ______ ____
ROOT
ATOM      1  C   UNL A   1      78.200  82.659  88.362  0.00  0.00    +0.127 A 
ATOM      2  C   UNL A   1      77.852  81.300  88.559  0.00  0.00    -0.009 A 
ATOM      3  C   UNL A   1      76.513  80.628  88.380  0.00  0.00    +0.048 C 
ATOM      4  C   UNL A   1      78.842  80.419  89.059  0.00  0.00    +0.007 A 
ATOM      5  C   UNL A   1      80.138  80.838  89.321  0.00  0.00    +0.001 A 
ATOM      6  C   UNL A   1      80.487  82.158  89.093  0.00  0.00    +0.007 A 
ATOM      7  C   UNL A   1      79.536  83.075  88.619  0.00  0.00    -0.009 A 
ATOM      8  C   UNL A   1      79.982  84.499  88.396  0.00  0.00    +0.048 C 
ENDROOT
BRANCH   1   9
ATOM      9  O   UNL A   1      77.393  83.709  87.961  0.00  0.00    -0.486 OA
BRANCH   9  10
ATOM     10  C   UNL A   1      76.961  83.724  86.614  0.00  0.00    +0.282 C 
BRANCH  10  12
ATOM     11  C   UNL A   1      77.408  86.067  85.932  0.00  0.00    +0.067 C 
ATOM     12  C   UNL A   1      76.296  85.045  86.185  0.00  0.00    +0.096 C 
BRANCH  12  13
ATOM     13  N   UNL A   1      75.389  85.568  87.216  0.00  0.00    +0.223 N 
ATOM     14  H   UNL A   1      75.774  86.430  87.602  0.00  0.00    +0.200 HD
ATOM     15  H   UNL A   1      75.286  84.878  87.960  0.00  0.00    +0.200 HD
ATOM     16  H   UNL A   1      74.477  85.759  86.800  0.00  0.00    +0.200 HD
ENDBRANCH  12  13
ENDBRANCH  10  12
ENDBRANCH   9  10
ENDBRANCH   1   9
TORSDOF 4
ENDMDL
MODEL 4
REMARK VINA RESULT:      -6.0      1.382      1.763
REMARK  Name = mexiletine.pdb
REMARK  7 active torsions:
REMARK  status: ('A' for Active; 'I' for Inactive)
REMARK    1  A    between atoms: N_1  and  C_12
REMARK    2  A    between atoms: C_2  and  O_13
REMARK    3  A    between atoms: C_3  and  C_4
REMARK    4  A    between atoms: C_8  and  C_9
REMARK    5  A    between atoms: C_10  and  C_12
REMARK    6  A    between atoms: C_10  and  O_13
REMARK    7  A    between atoms: C_11  and  C_12
REMARK                            x       y       z     vdW  Elec       q    Type
REMARK                         _______ _______ _______ _____ _____    ______ ____
ROOT
ATOM      1  C   UNL A   1      77.586  82.991  87.686  0.00  0.00    +0.127 A 
ATOM      2  C   UNL A   1      78.916  83.172  88.139  0.00  0.00    -0.009 A 
ATOM      3  C   UNL A   1      79.811  84.379  87.998  0.00  0.00    +0.048 C 
ATOM      4  C   UNL A   1      79.571  82.077  88.754  0.00  0.00    +0.007 A 
ATOM      5  C   UNL A   1      78.939  80.859  88.958  0.00  0.00    +0.001 A 
ATOM      6  C   UNL A   1      77.627  80.695  88.549  0.00  0.00    +0.007 A 
ATOM      7  C   UNL A   1      76.942  81.743  87.913  0.00  0.00    -0.009 A 
ATOM      8  C   UNL A   1      75.516  81.496  87.489  0.00  0.00    +0.048 C 
ENDROOT
BRANCH   1   9
ATOM      9  O   UNL A   1      76.780  83.878  86.995  0.00  0.00    -0.486 OA
BRANCH   9  10
ATOM     10  C   UNL A   1      77.165  84.221  85.678  0.00  0.00    +0.282 C 
BRANCH  10  12
ATOM     11  C   UNL A   1      78.618  86.079  84.906  0.00  0.00    +0.067 C 
ATOM     12  C   UNL A   1      77.215  85.739  85.417  0.00  0.00    +0.096 C 
BRANCH  12  13
ATOM     13  N   UNL A   1      76.945  86.519  86.632  0.00  0.00    +0.223 N 
ATOM     14  H   UNL A   1      75.961  86.787  86.653  0.00  0.00    +0.200 HD
ATOM     15  H   UNL A   1      77.526  87.357  86.635  0.00  0.00    +0.200 HD
ATOM     16  H   UNL A   1      77.160  85.954  87.453  0.00  0.00    +0.200 HD
ENDBRANCH  12  13
ENDBRANCH  10  12
ENDBRANCH   9  10
ENDBRANCH   1   9
TORSDOF 4
ENDMDL
MODEL 5
REMARK VINA RESULT:      -6.0      1.740      3.286
REMARK  Name = mexiletine.pdb
REMARK  7 active torsions:
REMARK  status: ('A' for Active; 'I' for Inactive)
REMARK    1  A    between atoms: N_1  and  C_12
REMARK    2  A    between atoms: C_2  and  O_13
REMARK    3  A    between atoms: C_3  and  C_4
REMARK    4  A    between atoms: C_8  and  C_9
REMARK    5  A    between atoms: C_10  and  C_12
REMARK    6  A    between atoms: C_10  and  O_13
REMARK    7  A    between atoms: C_11  and  C_12
REMARK                            x       y       z     vdW  Elec       q    Type
REMARK                         _______ _______ _______ _____ _____    ______ ____
ROOT
ATOM      1  C   UNL A   1      78.185  81.185  88.514  0.00  0.00    +0.127 A 
ATOM      2  C   UNL A   1      79.294  80.543  89.116  0.00  0.00    -0.009 A 
ATOM      3  C   UNL A   1      79.377  79.164  89.727  0.00  0.00    +0.048 C 
ATOM      4  C   UNL A   1      80.499  81.274  89.257  0.00  0.00    +0.007 A 
ATOM      5  C   UNL A   1      80.633  82.572  88.789  0.00  0.00    +0.001 A 
ATOM      6  C   UNL A   1      79.560  83.187  88.166  0.00  0.00    +0.007 A 
ATOM      7  C   UNL A   1      78.337  82.512  88.024  0.00  0.00    -0.009 A 
ATOM      8  C   UNL A   1      77.207  83.240  87.339  0.00  0.00    +0.048 C 
ENDROOT
BRANCH   1   9
ATOM      9  O   UNL A   1      76.898  80.707  88.341  0.00  0.00    -0.486 OA
BRANCH   9  10
ATOM     10  C   UNL A   1      76.053  80.682  89.475  0.00  0.00    +0.282 C 
BRANCH  10  12
ATOM     11  C   UNL A   1      74.386  80.856  87.646  0.00  0.00    +0.067 C 
ATOM     12  C   UNL A   1      74.575  80.981  89.161  0.00  0.00    +0.096 C 
BRANCH  12  13
ATOM     13  N   UNL A   1      74.182  82.333  89.583  0.00  0.00    +0.223 N 
ATOM     14  H   UNL A   1      73.959  82.894  88.762  0.00  0.00    +0.200 HD
ATOM     15  H   UNL A   1      74.952  82.767  90.093  0.00  0.00    +0.200 HD
ATOM     16  H   UNL A   1      73.363  82.274  90.188  0.00  0.00    +0.200 HD
ENDBRANCH  12  13
ENDBRANCH  10  12
ENDBRANCH   9  10
ENDBRANCH   1   9
TORSDOF 4
ENDMDL
MODEL 6
REMARK VINA RESULT:      -6.0      1.928      3.296
REMARK  Name = mexiletine.pdb
REMARK  7 active torsions:
REMARK  status: ('A' for Active; 'I' for Inactive)
REMARK    1  A    between atoms: N_1  and  C_12
REMARK    2  A    between atoms: C_2  and  O_13
REMARK    3  A    between atoms: C_3  and  C_4
REMARK    4  A    between atoms: C_8  and  C_9
REMARK    5  A    between atoms: C_10  and  C_12
REMARK    6  A    between atoms: C_10  and  O_13
REMARK    7  A    between atoms: C_11  and  C_12
REMARK                            x       y       z     vdW  Elec       q    Type
REMARK                         _______ _______ _______ _____ _____    ______ ____
ROOT
ATOM      1  C   UNL A   1      78.506  82.328  88.357  0.00  0.00    +0.127 A 
ATOM      2  C   UNL A   1      77.342  81.534  88.209  0.00  0.00    -0.009 A 
ATOM      3  C   UNL A   1      75.991  81.922  87.659  0.00  0.00    +0.048 C 
ATOM      4  C   UNL A   1      77.372  80.203  88.692  0.00  0.00    +0.007 A 
ATOM      5  C   UNL A   1      78.508  79.650  89.263  0.00  0.00    +0.001 A 
ATOM      6  C   UNL A   1      79.657  80.415  89.373  0.00  0.00    +0.007 A 
ATOM      7  C   UNL A   1      79.671  81.748  88.930  0.00  0.00    -0.009 A 
ATOM      8  C   UNL A   1      80.954  82.526  89.083  0.00  0.00    +0.048 C 
ENDROOT
BRANCH   1   9
ATOM      9  O   UNL A   1      78.689  83.662  88.037  0.00  0.00    -0.486 OA
BRANCH   9  10
ATOM     10  C   UNL A   1      78.703  84.008  86.665  0.00  0.00    +0.282 C 
BRANCH  10  12
ATOM     11  C   UNL A   1      80.994  84.283  85.752  0.00  0.00    +0.067 C 
ATOM     12  C   UNL A   1      79.781  85.045  86.294  0.00  0.00    +0.096 C 
BRANCH  12  13
ATOM     13  N   UNL A   1      80.197  85.850  87.450  0.00  0.00    +0.223 N 
ATOM     14  H   UNL A   1      81.207  85.779  87.568  0.00  0.00    +0.200 HD
ATOM     15  H   UNL A   1      79.731  85.504  88.290  0.00  0.00    +0.200 HD
ATOM     16  H   UNL A   1      79.940  86.824  87.296  0.00  0.00    +0.200 HD
ENDBRANCH  12  13
ENDBRANCH  10  12
ENDBRANCH   9  10
ENDBRANCH   1   9
TORSDOF 4
ENDMDL
MODEL 7
REMARK VINA RESULT:      -6.0      1.816      3.269
REMARK  Name = mexiletine.pdb
REMARK  7 active torsions:
REMARK  status: ('A' for Active; 'I' for Inactive)
REMARK    1  A    between atoms: N_1  and  C_12
REMARK    2  A    between atoms: C_2  and  O_13
REMARK    3  A    between atoms: C_3  and  C_4
REMARK    4  A    between atoms: C_8  and  C_9
REMARK    5  A    between atoms: C_10  and  C_12
REMARK    6  A    between atoms: C_10  and  O_13
REMARK    7  A    between atoms: C_11  and  C_12
REMARK                            x       y       z     vdW  Elec       q    Type
REMARK                         _______ _______ _______ _____ _____    ______ ____
ROOT
ATOM      1  C   UNL A   1      78.123  82.061  88.214  0.00  0.00    +0.127 A 
ATOM      2  C   UNL A   1      78.652  80.923  88.871  0.00  0.00    -0.009 A 
ATOM      3  C   UNL A   1      77.934  79.687  89.356  0.00  0.00    +0.048 C 
ATOM      4  C   UNL A   1      80.028  80.922  89.208  0.00  0.00    +0.007 A 
ATOM      5  C   UNL A   1      80.869  81.974  88.880  0.00  0.00    +0.001 A 
ATOM      6  C   UNL A   1      80.359  83.070  88.205  0.00  0.00    +0.007 A 
ATOM      7  C   UNL A   1      78.997  83.129  87.869  0.00  0.00    -0.009 A 
ATOM      8  C   UNL A   1      78.506  84.353  87.137  0.00  0.00    +0.048 C 
ENDROOT
BRANCH   1   9
ATOM      9  O   UNL A   1      76.812  82.323  87.859  0.00  0.00    -0.486 OA
BRANCH   9  10
ATOM     10  C   UNL A   1      75.899  82.614  88.901  0.00  0.00    +0.282 C 
BRANCH  10  12
ATOM     11  C   UNL A   1      74.525  80.938  87.692  0.00  0.00    +0.067 C 
ATOM     12  C   UNL A   1      74.783  81.565  89.065  0.00  0.00    +0.096 C 
BRANCH  12  13
ATOM     13  N   UNL A   1      73.535  82.158  89.564  0.00  0.00    +0.223 N 
ATOM     14  H   UNL A   1      72.771  81.926  88.930  0.00  0.00    +0.200 HD
ATOM     15  H   UNL A   1      73.637  83.172  89.618  0.00  0.00    +0.200 HD
ATOM     16  H   UNL A   1      73.330  81.788  90.493  0.00  0.00    +0.200 HD
ENDBRANCH  12  13
ENDBRANCH  10  12
ENDBRANCH   9  10
ENDBRANCH   1   9
TORSDOF 4
ENDMDL
MODEL 8
REMARK VINA RESULT:      -6.0      1.744      3.032
REMARK  Name = mexiletine.pdb
REMARK  7 active torsions:
REMARK  status: ('A' for Active; 'I' for Inactive)
REMARK    1  A    between atoms: N_1  and  C_12
REMARK    2  A    between atoms: C_2  and  O_13
REMARK    3  A    between atoms: C_3  and  C_4
REMARK    4  A    between atoms: C_8  and  C_9
REMARK    5  A    between atoms: C_10  and  C_12
REMARK    6  A    between atoms: C_10  and  O_13
REMARK    7  A    between atoms: C_11  and  C_12
REMARK                            x       y       z     vdW  Elec       q    Type
REMARK                         _______ _______ _______ _____ _____    ______ ____
ROOT
ATOM      1  C   UNL A   1      78.468  82.844  87.937  0.00  0.00    +0.127 A 
ATOM      2  C   UNL A   1      77.169  82.329  87.705  0.00  0.00    -0.009 A 
ATOM      3  C   UNL A   1      75.995  82.988  87.024  0.00  0.00    +0.048 C 
ATOM      4  C   UNL A   1      76.851  81.050  88.225  0.00  0.00    +0.007 A 
ATOM      5  C   UNL A   1      77.778  80.282  88.912  0.00  0.00    +0.001 A 
ATOM      6  C   UNL A   1      79.059  80.770  89.106  0.00  0.00    +0.007 A 
ATOM      7  C   UNL A   1      79.417  82.041  88.629  0.00  0.00    -0.009 A 
ATOM      8  C   UNL A   1      80.827  82.514  88.878  0.00  0.00    +0.048 C 
ENDROOT
BRANCH   1   9
ATOM      9  O   UNL A   1      78.980  84.084  87.599  0.00  0.00    -0.486 OA
BRANCH   9  10
ATOM     10  C   UNL A   1      79.118  84.381  86.222  0.00  0.00    +0.282 C 
BRANCH  10  12
ATOM     11  C   UNL A   1      77.873  86.359  87.056  0.00  0.00    +0.067 C 
ATOM     12  C   UNL A   1      78.501  85.730  85.808  0.00  0.00    +0.096 C 
BRANCH  12  13
ATOM     13  N   UNL A   1      77.466  85.573  84.777  0.00  0.00    +0.223 N 
ATOM     14  H   UNL A   1      77.121  86.491  84.499  0.00  0.00    +0.200 HD
ATOM     15  H   UNL A   1      76.696  85.018  85.151  0.00  0.00    +0.200 HD
ATOM     16  H   UNL A   1      77.864  85.099  83.967  0.00  0.00    +0.200 HD
ENDBRANCH  12  13
ENDBRANCH  10  12
ENDBRANCH   9  10
ENDBRANCH   1   9
TORSDOF 4
ENDMDL
MODEL 9
REMARK VINA RESULT:      -6.0      1.732      2.914
REMARK  Name = mexiletine.pdb
REMARK  7 active torsions:
REMARK  status: ('A' for Active; 'I' for Inactive)
REMARK    1  A    between atoms: N_1  and  C_12
REMARK    2  A    between atoms: C_2  and  O_13
REMARK    3  A    between atoms: C_3  and  C_4
REMARK    4  A    between atoms: C_8  and  C_9
REMARK    5  A    between atoms: C_10  and  C_12
REMARK    6  A    between atoms: C_10  and  O_13
REMARK    7  A    between atoms: C_11  and  C_12
REMARK                            x       y       z     vdW  Elec       q    Type
REMARK                         _______ _______ _______ _____ _____    ______ ____
ROOT
ATOM      1  C   UNL A   1      78.142  81.201  88.596  0.00  0.00    +0.127 A 
ATOM      2  C   UNL A   1      78.278  82.517  88.091  0.00  0.00    -0.009 A 
ATOM      3  C   UNL A   1      77.239  83.394  87.434  0.00  0.00    +0.048 C 
ATOM      4  C   UNL A   1      79.560  83.117  88.117  0.00  0.00    +0.007 A 
ATOM      5  C   UNL A   1      80.665  82.473  88.653  0.00  0.00    +0.001 A 
ATOM      6  C   UNL A   1      80.524  81.201  89.180  0.00  0.00    +0.007 A 
ATOM      7  C   UNL A   1      79.277  80.555  89.158  0.00  0.00    -0.009 A 
ATOM      8  C   UNL A   1      79.194  79.168  89.745  0.00  0.00    +0.048 C 
ENDROOT
BRANCH   1   9
ATOM      9  O   UNL A   1      77.021  80.390  88.606  0.00  0.00    -0.486 OA
BRANCH   9  10
ATOM     10  C   UNL A   1      76.073  80.598  89.636  0.00  0.00    +0.282 C 
BRANCH  10  12
ATOM     11  C   UNL A   1      74.665  80.779  87.600  0.00  0.00    +0.067 C 
ATOM     12  C   UNL A   1      74.657  80.927  89.124  0.00  0.00    +0.096 C 
BRANCH  12  13
ATOM     13  N   UNL A   1      74.247  82.295  89.472  0.00  0.00    +0.223 N 
ATOM     14  H   UNL A   1      73.237  82.385  89.364  0.00  0.00    +0.200 HD
ATOM     15  H   UNL A   1      74.716  82.958  88.854  0.00  0.00    +0.200 HD
ATOM     16  H   UNL A   1      74.505  82.491  90.439  0.00  0.00    +0.200 HD
ENDBRANCH  12  13
ENDBRANCH  10  12
ENDBRANCH   9  10
ENDBRANCH   1   9
TORSDOF 4
ENDMDL
MODEL 10
REMARK VINA RESULT:      -5.9      1.687      2.168
REMARK  Name = mexiletine.pdb
REMARK  7 active torsions:
REMARK  status: ('A' for Active; 'I' for Inactive)
REMARK    1  A    between atoms: N_1  and  C_12
REMARK    2  A    between atoms: C_2  and  O_13
REMARK    3  A    between atoms: C_3  and  C_4
REMARK    4  A    between atoms: C_8  and  C_9
REMARK    5  A    between atoms: C_10  and  C_12
REMARK    6  A    between atoms: C_10  and  O_13
REMARK    7  A    between atoms: C_11  and  C_12
REMARK                            x       y       z     vdW  Elec       q    Type
REMARK                         _______ _______ _______ _____ _____    ______ ____
ROOT
ATOM      1  C   UNL A   1      78.486  81.968  88.344  0.00  0.00    +0.127 A 
ATOM      2  C   UNL A   1      79.728  81.601  88.918  0.00  0.00    -0.009 A 
ATOM      3  C   UNL A   1      81.021  82.379  88.962  0.00  0.00    +0.048 C 
ATOM      4  C   UNL A   1      79.851  80.307  89.481  0.00  0.00    +0.007 A 
ATOM      5  C   UNL A   1      78.790  79.416  89.521  0.00  0.00    +0.001 A 
ATOM      6  C   UNL A   1      77.566  79.789  88.993  0.00  0.00    +0.007 A 
ATOM      7  C   UNL A   1      77.399  81.053  88.403  0.00  0.00    -0.009 A 
ATOM      8  C   UNL A   1      76.041  81.394  87.843  0.00  0.00    +0.048 C 
ENDROOT
BRANCH   1   9
ATOM      9  O   UNL A   1      78.154  83.133  87.674  0.00  0.00    -0.486 OA
BRANCH   9  10
ATOM     10  C   UNL A   1      78.021  84.313  88.444  0.00  0.00    +0.282 C 
BRANCH  10  12
ATOM     11  C   UNL A   1      79.470  86.210  89.121  0.00  0.00    +0.067 C 
ATOM     12  C   UNL A   1      78.848  85.500  87.915  0.00  0.00    +0.096 C 
BRANCH  12  13
ATOM     13  N   UNL A   1      78.023  86.459  87.166  0.00  0.00    +0.223 N 
ATOM     14  H   UNL A   1      77.052  86.151  87.174  0.00  0.00    +0.200 HD
ATOM     15  H   UNL A   1      78.355  86.513  86.203  0.00  0.00    +0.200 HD
ATOM     16  H   UNL A   1      78.092  87.378  87.602  0.00  0.00    +0.200 HD
ENDBRANCH  12  13
ENDBRANCH  10  12
ENDBRANCH   9  10
ENDBRANCH   1   9
TORSDOF 4
ENDMDL
MODEL 11
REMARK VINA RESULT:      -5.8      1.694      2.321
REMARK  Name = mexiletine.pdb
REMARK  7 active torsions:
REMARK  status: ('A' for Active; 'I' for Inactive)
REMARK    1  A    between atoms: N_1  and  C_12
REMARK    2  A    between atoms: C_2  and  O_13
REMARK    3  A    between atoms: C_3  and  C_4
REMARK    4  A    between atoms: C_8  and  C_9
REMARK    5  A    between atoms: C_10  and  C_12
REMARK    6  A    between atoms: C_10  and  O_13
REMARK    7  A    between atoms: C_11  and  C_12
REMARK                            x       y       z     vdW  Elec       q    Type
REMARK                         _______ _______ _______ _____ _____    ______ ____
ROOT
ATOM      1  C   UNL A   1      78.556  82.563  88.388  0.00  0.00    +0.127 A 
ATOM      2  C   UNL A   1      79.674  81.868  88.912  0.00  0.00    -0.009 A 
ATOM      3  C   UNL A   1      81.086  82.361  89.118  0.00  0.00    +0.048 C 
ATOM      4  C   UNL A   1      79.521  80.499  89.238  0.00  0.00    +0.007 A 
ATOM      5  C   UNL A   1      78.310  79.838  89.099  0.00  0.00    +0.001 A 
ATOM      6  C   UNL A   1      77.208  80.527  88.622  0.00  0.00    +0.007 A 
ATOM      7  C   UNL A   1      77.314  81.880  88.263  0.00  0.00    -0.009 A 
ATOM      8  C   UNL A   1      76.076  82.570  87.747  0.00  0.00    +0.048 C 
ENDROOT
BRANCH   1   9
ATOM      9  O   UNL A   1      78.485  83.867  87.930  0.00  0.00    -0.486 OA
BRANCH   9  10
ATOM     10  C   UNL A   1      79.092  84.155  86.684  0.00  0.00    +0.282 C 
BRANCH  10  12
ATOM     11  C   UNL A   1      77.454  84.453  84.845  0.00  0.00    +0.067 C 
ATOM     12  C   UNL A   1      78.335  85.204  85.848  0.00  0.00    +0.096 C 
BRANCH  12  13
ATOM     13  N   UNL A   1      79.248  86.091  85.115  0.00  0.00    +0.223 N 
ATOM     14  H   UNL A   1      78.741  86.919  84.803  0.00  0.00    +0.200 HD
ATOM     15  H   UNL A   1      79.625  85.597  84.305  0.00  0.00    +0.200 HD
ATOM     16  H   UNL A   1      80.014  86.371  85.727  0.00  0.00    +0.200 HD
ENDBRANCH  12  13
ENDBRANCH  10  12
ENDBRANCH   9  10
ENDBRANCH   1   9
TORSDOF 4
ENDMDL
MODEL 12
REMARK VINA RESULT:      -5.7      8.336     10.308
REMARK  Name = mexiletine.pdb
REMARK  7 active torsions:
REMARK  status: ('A' for Active; 'I' for Inactive)
REMARK    1  A    between atoms: N_1  and  C_12
REMARK    2  A    between atoms: C_2  and  O_13
REMARK    3  A    between atoms: C_3  and  C_4
REMARK    4  A    between atoms: C_8  and  C_9
REMARK    5  A    between atoms: C_10  and  C_12
REMARK    6  A    between atoms: C_10  and  O_13
REMARK    7  A    between atoms: C_11  and  C_12
REMARK                            x       y       z     vdW  Elec       q    Type
REMARK                         _______ _______ _______ _____ _____    ______ ____
ROOT
ATOM      1  C   UNL A   1      82.331  89.557  90.743  0.00  0.00    +0.127 A 
ATOM      2  C   UNL A   1      82.604  90.943  90.642  0.00  0.00    -0.009 A 
ATOM      3  C   UNL A   1      83.705  91.744  91.295  0.00  0.00    +0.048 C 
ATOM      4  C   UNL A   1      81.713  91.751  89.895  0.00  0.00    +0.007 A 
ATOM      5  C   UNL A   1      80.615  91.221  89.235  0.00  0.00    +0.001 A 
ATOM      6  C   UNL A   1      80.369  89.861  89.303  0.00  0.00    +0.007 A 
ATOM      7  C   UNL A   1      81.211  89.021  90.049  0.00  0.00    -0.009 A 
ATOM      8  C   UNL A   1      80.885  87.549  90.085  0.00  0.00    +0.048 C 
ENDROOT
BRANCH   1   9
ATOM      9  O   UNL A   1      83.006  88.593  91.472  0.00  0.00    -0.486 OA
BRANCH   9  10
ATOM     10  C   UNL A   1      82.942  88.679  92.883  0.00  0.00    +0.282 C 
BRANCH  10  12
ATOM     11  C   UNL A   1      84.345  89.632  94.695  0.00  0.00    +0.067 C 
ATOM     12  C   UNL A   1      84.314  88.585  93.578  0.00  0.00    +0.096 C 
BRANCH  12  13
ATOM     13  N   UNL A   1      85.423  88.842  92.649  0.00  0.00    +0.223 N 
ATOM     14  H   UNL A   1      86.278  89.008  93.178  0.00  0.00    +0.200 HD
ATOM     15  H   UNL A   1      85.209  89.663  92.082  0.00  0.00    +0.200 HD
ATOM     16  H   UNL A   1      85.551  88.033  92.041  0.00  0.00    +0.200 HD
ENDBRANCH  12  13
ENDBRANCH  10  12
ENDBRANCH   9  10
ENDBRANCH   1   9
TORSDOF 4
ENDMDL
MODEL 13
REMARK VINA RESULT:      -5.7      2.187      4.839
REMARK  Name = mexiletine.pdb
REMARK  7 active torsions:
REMARK  status: ('A' for Active; 'I' for Inactive)
REMARK    1  A    between atoms: N_1  and  C_12
REMARK    2  A    between atoms: C_2  and  O_13
REMARK    3  A    between atoms: C_3  and  C_4
REMARK    4  A    between atoms: C_8  and  C_9
REMARK    5  A    between atoms: C_10  and  C_12
REMARK    6  A    between atoms: C_10  and  O_13
REMARK    7  A    between atoms: C_11  and  C_12
REMARK                            x       y       z     vdW  Elec       q    Type
REMARK                         _______ _______ _______ _____ _____    ______ ____
ROOT
ATOM      1  C   UNL A   1      78.745  84.302  87.323  0.00  0.00    +0.127 A 
ATOM      2  C   UNL A   1      79.422  84.531  86.100  0.00  0.00    -0.009 A 
ATOM      3  C   UNL A   1      80.877  84.309  85.764  0.00  0.00    +0.048 C 
ATOM      4  C   UNL A   1      78.699  85.114  85.031  0.00  0.00    +0.007 A 
ATOM      5  C   UNL A   1      77.352  85.427  85.135  0.00  0.00    +0.001 A 
ATOM      6  C   UNL A   1      76.682  85.168  86.318  0.00  0.00    +0.007 A 
ATOM      7  C   UNL A   1      77.360  84.611  87.415  0.00  0.00    -0.009 A 
ATOM      8  C   UNL A   1      76.571  84.359  88.675  0.00  0.00    +0.048 C 
ENDROOT
BRANCH   1   9
ATOM      9  O   UNL A   1      79.254  83.822  88.516  0.00  0.00    -0.486 OA
BRANCH   9  10
ATOM     10  C   UNL A   1      79.812  82.521  88.512  0.00  0.00    +0.282 C 
BRANCH  10  12
ATOM     11  C   UNL A   1      79.818  80.261  89.538  0.00  0.00    +0.067 C 
ATOM     12  C   UNL A   1      78.929  81.461  89.198  0.00  0.00    +0.096 C 
BRANCH  12  13
ATOM     13  N   UNL A   1      77.829  81.012  88.333  0.00  0.00    +0.223 N 
ATOM     14  H   UNL A   1      78.212  80.585  87.490  0.00  0.00    +0.200 HD
ATOM     15  H   UNL A   1      77.250  81.812  88.076  0.00  0.00    +0.200 HD
ATOM     16  H   UNL A   1      77.261  80.329  88.832  0.00  0.00    +0.200 HD
ENDBRANCH  12  13
ENDBRANCH  10  12
ENDBRANCH   9  10
ENDBRANCH   1   9
TORSDOF 4
ENDMDL
MODEL 14
REMARK VINA RESULT:      -5.6      3.160      4.938
REMARK  Name = mexiletine.pdb
REMARK  7 active torsions:
REMARK  status: ('A' for Active; 'I' for Inactive)
REMARK    1  A    between atoms: N_1  and  C_12
REMARK    2  A    between atoms: C_2  and  O_13
REMARK    3  A    between atoms: C_3  and  C_4
REMARK    4  A    between atoms: C_8  and  C_9
REMARK    5  A    between atoms: C_10  and  C_12
REMARK    6  A    between atoms: C_10  and  O_13
REMARK    7  A    between atoms: C_11  and  C_12
REMARK                            x       y       z     vdW  Elec       q    Type
REMARK                         _______ _______ _______ _____ _____    ______ ____
ROOT
ATOM      1  C   UNL A   1      77.825  80.130  88.952  0.00  0.00    +0.127 A 
ATOM      2  C   UNL A   1      79.132  79.874  89.436  0.00  0.00    -0.009 A 
ATOM      3  C   UNL A   1      79.657  78.653  90.151  0.00  0.00    +0.048 C 
ATOM      4  C   UNL A   1      80.102  80.900  89.326  0.00  0.00    +0.007 A 
ATOM      5  C   UNL A   1      79.821  82.119  88.727  0.00  0.00    +0.001 A 
ATOM      6  C   UNL A   1      78.555  82.354  88.220  0.00  0.00    +0.007 A 
ATOM      7  C   UNL A   1      77.552  81.377  88.325  0.00  0.00    -0.009 A 
ATOM      8  C   UNL A   1      76.193  81.700  87.756  0.00  0.00    +0.048 C 
ENDROOT
BRANCH   1   9
ATOM      9  O   UNL A   1      76.704  79.321  89.019  0.00  0.00    -0.486 OA
BRANCH   9  10
ATOM     10  C   UNL A   1      75.994  79.290  90.243  0.00  0.00    +0.282 C 
BRANCH  10  12
ATOM     11  C   UNL A   1      76.300  76.832  90.101  0.00  0.00    +0.067 C 
ATOM     12  C   UNL A   1      76.234  78.014  91.072  0.00  0.00    +0.096 C 
BRANCH  12  13
ATOM     13  N   UNL A   1      75.159  77.776  92.045  0.00  0.00    +0.223 N 
ATOM     14  H   UNL A   1      75.050  76.773  92.194  0.00  0.00    +0.200 HD
ATOM     15  H   UNL A   1      74.285  78.164  91.688  0.00  0.00    +0.200 HD
ATOM     16  H   UNL A   1      75.394  78.227  92.929  0.00  0.00    +0.200 HD
ENDBRANCH  12  13
ENDBRANCH  10  12
ENDBRANCH   9  10
ENDBRANCH   1   9
TORSDOF 4
ENDMDL
MODEL 15
REMARK VINA RESULT:      -5.6      2.535      4.197
REMARK  Name = mexiletine.pdb
REMARK  7 active torsions:
REMARK  status: ('A' for Active; 'I' for Inactive)
REMARK    1  A    between atoms: N_1  and  C_12
REMARK    2  A    between atoms: C_2  and  O_13
REMARK    3  A    between atoms: C_3  and  C_4
REMARK    4  A    between atoms: C_8  and  C_9
REMARK    5  A    between atoms: C_10  and  C_12
REMARK    6  A    between atoms: C_10  and  O_13
REMARK    7  A    between atoms: C_11  and  C_12
REMARK                            x       y       z     vdW  Elec       q    Type
REMARK                         _______ _______ _______ _____ _____    ______ ____
ROOT
ATOM      1  C   UNL A   1      78.161  81.125  88.575  0.00  0.00    +0.127 A 
ATOM      2  C   UNL A   1      78.036  82.408  87.989  0.00  0.00    -0.009 A 
ATOM      3  C   UNL A   1      76.831  83.042  87.338  0.00  0.00    +0.048 C 
ATOM      4  C   UNL A   1      79.190  83.225  87.912  0.00  0.00    +0.007 A 
ATOM      5  C   UNL A   1      80.414  82.824  88.425  0.00  0.00    +0.001 A 
ATOM      6  C   UNL A   1      80.526  81.585  89.032  0.00  0.00    +0.007 A 
ATOM      7  C   UNL A   1      79.416  80.728  89.113  0.00  0.00    -0.009 A 
ATOM      8  C   UNL A   1      79.608  79.391  89.783  0.00  0.00    +0.048 C 
ENDROOT
BRANCH   1   9
ATOM      9  O   UNL A   1      77.205  80.130  88.691  0.00  0.00    -0.486 OA
BRANCH   9  10
ATOM     10  C   UNL A   1      76.199  80.303  89.671  0.00  0.00    +0.282 C 
BRANCH  10  12
ATOM     11  C   UNL A   1      76.189  77.822  89.672  0.00  0.00    +0.067 C 
ATOM     12  C   UNL A   1      75.959  79.058  90.546  0.00  0.00    +0.096 C 
BRANCH  12  13
ATOM     13  N   UNL A   1      74.593  79.016  91.087  0.00  0.00    +0.223 N 
ATOM     14  H   UNL A   1      73.960  79.498  90.449  0.00  0.00    +0.200 HD
ATOM     15  H   UNL A   1      74.574  79.474  91.998  0.00  0.00    +0.200 HD
ATOM     16  H   UNL A   1      74.298  78.045  91.189  0.00  0.00    +0.200 HD
ENDBRANCH  12  13
ENDBRANCH  10  12
ENDBRANCH   9  10
ENDBRANCH   1   9
TORSDOF 4
ENDMDL
MODEL 16
REMARK VINA RESULT:      -5.6      1.776      3.911
REMARK  Name = mexiletine.pdb
REMARK  7 active torsions:
REMARK  status: ('A' for Active; 'I' for Inactive)
REMARK    1  A    between atoms: N_1  and  C_12
REMARK    2  A    between atoms: C_2  and  O_13
REMARK    3  A    between atoms: C_3  and  C_4
REMARK    4  A    between atoms: C_8  and  C_9
REMARK    5  A    between atoms: C_10  and  C_12
REMARK    6  A    between atoms: C_10  and  O_13
REMARK    7  A    between atoms: C_11  and  C_12
REMARK                            x       y       z     vdW  Elec       q    Type
REMARK                         _______ _______ _______ _____ _____    ______ ____
ROOT
ATOM      1  C   UNL A   1      78.447  83.460  87.609  0.00  0.00    +0.127 A 
ATOM      2  C   UNL A   1      77.878  84.148  86.509  0.00  0.00    -0.009 A 
ATOM      3  C   UNL A   1      76.423  84.372  86.179  0.00  0.00    +0.048 C 
ATOM      4  C   UNL A   1      78.747  84.654  85.512  0.00  0.00    +0.007 A 
ATOM      5  C   UNL A   1      80.126  84.531  85.603  0.00  0.00    +0.001 A 
ATOM      6  C   UNL A   1      80.682  83.892  86.697  0.00  0.00    +0.007 A 
ATOM      7  C   UNL A   1      79.862  83.352  87.702  0.00  0.00    -0.009 A 
ATOM      8  C   UNL A   1      80.533  82.666  88.864  0.00  0.00    +0.048 C 
ENDROOT
BRANCH   1   9
ATOM      9  O   UNL A   1      77.804  82.819  88.654  0.00  0.00    -0.486 OA
BRANCH   9  10
ATOM     10  C   UNL A   1      77.219  81.558  88.385  0.00  0.00    +0.282 C 
BRANCH  10  12
ATOM     11  C   UNL A   1      74.985  81.174  87.377  0.00  0.00    +0.067 C 
ATOM     12  C   UNL A   1      75.710  81.492  88.687  0.00  0.00    +0.096 C 
BRANCH  12  13
ATOM     13  N   UNL A   1      75.198  82.761  89.224  0.00  0.00    +0.223 N 
ATOM     14  H   UNL A   1      74.303  82.978  88.787  0.00  0.00    +0.200 HD
ATOM     15  H   UNL A   1      75.864  83.508  89.026  0.00  0.00    +0.200 HD
ATOM     16  H   UNL A   1      75.072  82.676  90.233  0.00  0.00    +0.200 HD
ENDBRANCH  12  13
ENDBRANCH  10  12
ENDBRANCH   9  10
ENDBRANCH   1   9
TORSDOF 4
ENDMDL
MODEL 17
REMARK VINA RESULT:      -5.5      1.988      3.944
REMARK  Name = mexiletine.pdb
REMARK  7 active torsions:
REMARK  status: ('A' for Active; 'I' for Inactive)
REMARK    1  A    between atoms: N_1  and  C_12
REMARK    2  A    between atoms: C_2  and  O_13
REMARK    3  A    between atoms: C_3  and  C_4
REMARK    4  A    between atoms: C_8  and  C_9
REMARK    5  A    between atoms: C_10  and  C_12
REMARK    6  A    between atoms: C_10  and  O_13
REMARK    7  A    between atoms: C_11  and  C_12
REMARK                            x       y       z     vdW  Elec       q    Type
REMARK                         _______ _______ _______ _____ _____    ______ ____
ROOT
ATOM      1  C   UNL A   1      77.962  83.826  87.667  0.00  0.00    +0.127 A 
ATOM      2  C   UNL A   1      79.352  83.632  87.471  0.00  0.00    -0.009 A 
ATOM      3  C   UNL A   1      80.361  82.996  88.395  0.00  0.00    +0.048 C 
ATOM      4  C   UNL A   1      79.942  84.152  86.293  0.00  0.00    +0.007 A 
ATOM      5  C   UNL A   1      79.198  84.801  85.319  0.00  0.00    +0.001 A 
ATOM      6  C   UNL A   1      77.834  84.957  85.494  0.00  0.00    +0.007 A 
ATOM      7  C   UNL A   1      77.205  84.480  86.656  0.00  0.00    -0.009 A 
ATOM      8  C   UNL A   1      75.717  84.685  86.785  0.00  0.00    +0.048 C 
ENDROOT
BRANCH   1   9
ATOM      9  O   UNL A   1      77.187  83.482  88.761  0.00  0.00    -0.486 OA
BRANCH   9  10
ATOM     10  C   UNL A   1      77.110  82.110  89.100  0.00  0.00    +0.282 C 
BRANCH  10  12
ATOM     11  C   UNL A   1      75.363  81.170  87.610  0.00  0.00    +0.067 C 
ATOM     12  C   UNL A   1      75.681  81.536  89.062  0.00  0.00    +0.096 C 
BRANCH  12  13
ATOM     13  N   UNL A   1      74.683  82.503  89.542  0.00  0.00    +0.223 N 
ATOM     14  H   UNL A   1      75.085  83.061  90.295  0.00  0.00    +0.200 HD
ATOM     15  H   UNL A   1      73.864  82.003  89.889  0.00  0.00    +0.200 HD
ATOM     16  H   UNL A   1      74.408  83.116  88.775  0.00  0.00    +0.200 HD
ENDBRANCH  12  13
ENDBRANCH  10  12
ENDBRANCH   9  10
ENDBRANCH   1   9
TORSDOF 4
ENDMDL
MODEL 18
REMARK VINA RESULT:      -5.5      2.027      3.229
REMARK  Name = mexiletine.pdb
REMARK  7 active torsions:
REMARK  status: ('A' for Active; 'I' for Inactive)
REMARK    1  A    between atoms: N_1  and  C_12
REMARK    2  A    between atoms: C_2  and  O_13
REMARK    3  A    between atoms: C_3  and  C_4
REMARK    4  A    between atoms: C_8  and  C_9
REMARK    5  A    between atoms: C_10  and  C_12
REMARK    6  A    between atoms: C_10  and  O_13
REMARK    7  A    between atoms: C_11  and  C_12
REMARK                            x       y       z     vdW  Elec       q    Type
REMARK                         _______ _______ _______ _____ _____    ______ ____
ROOT
ATOM      1  C   UNL A   1      78.665  83.485  88.798  0.00  0.00    +0.127 A 
ATOM      2  C   UNL A   1      79.488  82.336  88.895  0.00  0.00    -0.009 A 
ATOM      3  C   UNL A   1      80.983  82.252  89.091  0.00  0.00    +0.048 C 
ATOM      4  C   UNL A   1      78.890  81.065  88.719  0.00  0.00    +0.007 A 
ATOM      5  C   UNL A   1      77.529  80.914  88.498  0.00  0.00    +0.001 A 
ATOM      6  C   UNL A   1      76.719  82.036  88.441  0.00  0.00    +0.007 A 
ATOM      7  C   UNL A   1      77.269  83.320  88.586  0.00  0.00    -0.009 A 
ATOM      8  C   UNL A   1      76.331  84.499  88.510  0.00  0.00    +0.048 C 
ENDROOT
BRANCH   1   9
ATOM      9  O   UNL A   1      79.032  84.818  88.856  0.00  0.00    -0.486 OA
BRANCH   9  10
ATOM     10  C   UNL A   1      79.974  85.278  87.905  0.00  0.00    +0.282 C 
BRANCH  10  12
ATOM     11  C   UNL A   1      80.812  84.345  85.764  0.00  0.00    +0.067 C 
ATOM     12  C   UNL A   1      79.591  84.969  86.445  0.00  0.00    +0.096 C 
BRANCH  12  13
ATOM     13  N   UNL A   1      79.196  86.178  85.709  0.00  0.00    +0.223 N 
ATOM     14  H   UNL A   1      79.489  87.004  86.230  0.00  0.00    +0.200 HD
ATOM     15  H   UNL A   1      78.182  86.190  85.595  0.00  0.00    +0.200 HD
ATOM     16  H   UNL A   1      79.642  86.178  84.792  0.00  0.00    +0.200 HD
ENDBRANCH  12  13
ENDBRANCH  10  12
ENDBRANCH   9  10
ENDBRANCH   1   9
TORSDOF 4
ENDMDL
