MODEL 1
REMARK VINA RESULT:      -6.0      0.000      0.000
REMARK  Name = mexiletine.pdb
REMARK  7 active torsions:
REMARK  status: ('A' for Active; 'I' for Inactive)
REMARK    1  A    between atoms: N_1  and  C_12
REMARK    2  A    between atoms: C_2  and  O_13
REMARK    3  A    between atoms: C_3  and  C_4
REMARK    4  A    between atoms: C_8  and  C_9
REMARK    5  A    between atoms: C_10  and  C_12
REMARK    6  A    between atoms: C_10  and  O_13
REMARK    7  A    between atoms: C_11  and  C_12
REMARK                            x       y       z     vdW  Elec       q    Type
REMARK                         _______ _______ _______ _____ _____    ______ ____
ROOT
ATOM      1  C   UNL A   1     108.936  72.374  86.707  0.00  0.00    +0.127 A 
ATOM      2  C   UNL A   1     108.184  71.930  87.822  0.00  0.00    -0.009 A 
ATOM      3  C   UNL A   1     108.563  71.931  89.283  0.00  0.00    +0.048 C 
ATOM      4  C   UNL A   1     106.924  71.329  87.586  0.00  0.00    +0.007 A 
ATOM      5  C   UNL A   1     106.395  71.201  86.311  0.00  0.00    +0.001 A 
ATOM      6  C   UNL A   1     107.114  71.669  85.224  0.00  0.00    +0.007 A 
ATOM      7  C   UNL A   1     108.379  72.253  85.404  0.00  0.00    -0.009 A 
ATOM      8  C   UNL A   1     109.110  72.738  84.178  0.00  0.00    +0.048 C 
ENDROOT
BRANCH   1   9
ATOM      9  O   UNL A   1     110.210  72.915  86.682  0.00  0.00    -0.486 OA
BRANCH   9  10
ATOM     10  C   UNL A   1     111.287  72.062  87.023  0.00  0.00    +0.282 C 
BRANCH  10  12
ATOM     11  C   UNL A   1     111.685  73.945  88.590  0.00  0.00    +0.067 C 
ATOM     12  C   UNL A   1     112.334  72.717  87.945  0.00  0.00    +0.096 C 
BRANCH  12  13
ATOM     13  N   UNL A   1     113.533  73.139  87.208  0.00  0.00    +0.223 N 
ATOM     14  H   UNL A   1     113.308  73.236  86.219  0.00  0.00    +0.200 HD
ATOM     15  H   UNL A   1     114.267  72.440  87.324  0.00  0.00    +0.200 HD
ATOM     16  H   UNL A   1     113.857  74.035  87.572  0.00  0.00    +0.200 HD
ENDBRANCH  12  13
ENDBRANCH  10  12
ENDBRANCH   9  10
ENDBRANCH   1   9
TORSDOF 4
ENDMDL
MODEL 2
REMARK VINA RESULT:      -6.0      0.430      2.477
REMARK  Name = mexiletine.pdb
REMARK  7 active torsions:
REMARK  status: ('A' for Active; 'I' for Inactive)
REMARK    1  A    between atoms: N_1  and  C_12
REMARK    2  A    between atoms: C_2  and  O_13
REMARK    3  A    between atoms: C_3  and  C_4
REMARK    4  A    between atoms: C_8  and  C_9
REMARK    5  A    between atoms: C_10  and  C_12
REMARK    6  A    between atoms: C_10  and  O_13
REMARK    7  A    between atoms: C_11  and  C_12
REMARK                            x       y       z     vdW  Elec       q    Type
REMARK                         _______ _______ _______ _____ _____    ______ ____
ROOT
ATOM      1  C   UNL A   1     108.922  72.419  86.686  0.00  0.00    +0.127 A 
ATOM      2  C   UNL A   1     108.509  72.224  85.345  0.00  0.00    -0.009 A 
ATOM      3  C   UNL A   1     109.182  72.671  84.070  0.00  0.00    +0.048 C 
ATOM      4  C   UNL A   1     107.265  71.589  85.111  0.00  0.00    +0.007 A 
ATOM      5  C   UNL A   1     106.468  71.123  86.146  0.00  0.00    +0.001 A 
ATOM      6  C   UNL A   1     106.890  71.281  87.455  0.00  0.00    +0.007 A 
ATOM      7  C   UNL A   1     108.105  71.925  87.740  0.00  0.00    -0.009 A 
ATOM      8  C   UNL A   1     108.503  72.067  89.188  0.00  0.00    +0.048 C 
ENDROOT
BRANCH   1   9
ATOM      9  O   UNL A   1     110.045  73.076  87.158  0.00  0.00    -0.486 OA
BRANCH   9  10
ATOM     10  C   UNL A   1     111.259  72.350  87.192  0.00  0.00    +0.282 C 
BRANCH  10  12
ATOM     11  C   UNL A   1     112.125  74.286  88.479  0.00  0.00    +0.067 C 
ATOM     12  C   UNL A   1     112.203  72.763  88.337  0.00  0.00    +0.096 C 
BRANCH  12  13
ATOM     13  N   UNL A   1     113.596  72.378  88.073  0.00  0.00    +0.223 N 
ATOM     14  H   UNL A   1     113.989  72.988  87.357  0.00  0.00    +0.200 HD
ATOM     15  H   UNL A   1     113.626  71.411  87.748  0.00  0.00    +0.200 HD
ATOM     16  H   UNL A   1     114.141  72.465  88.930  0.00  0.00    +0.200 HD
ENDBRANCH  12  13
ENDBRANCH  10  12
ENDBRANCH   9  10
ENDBRANCH   1   9
TORSDOF 4
ENDMDL
MODEL 3
REMARK VINA RESULT:      -5.9     28.188     29.924
REMARK  Name = mexiletine.pdb
REMARK  7 active torsions:
REMARK  status: ('A' for Active; 'I' for Inactive)
REMARK    1  A    between atoms: N_1  and  C_12
REMARK    2  A    between atoms: C_2  and  O_13
REMARK    3  A    between atoms: C_3  and  C_4
REMARK    4  A    between atoms: C_8  and  C_9
REMARK    5  A    between atoms: C_10  and  C_12
REMARK    6  A    between atoms: C_10  and  O_13
REMARK    7  A    between atoms: C_11  and  C_12
REMARK                            x       y       z     vdW  Elec       q    Type
REMARK                         _______ _______ _______ _____ _____    ______ ____
ROOT
ATOM      1  C   UNL A   1      81.305  80.874  91.325  0.00  0.00    +0.127 A 
ATOM      2  C   UNL A   1      80.684  82.058  90.860  0.00  0.00    -0.009 A 
ATOM      3  C   UNL A   1      80.577  82.582  89.448  0.00  0.00    +0.048 C 
ATOM      4  C   UNL A   1      80.134  82.948  91.814  0.00  0.00    +0.007 A 
ATOM      5  C   UNL A   1      80.150  82.674  93.173  0.00  0.00    +0.001 A 
ATOM      6  C   UNL A   1      80.723  81.498  93.625  0.00  0.00    +0.007 A 
ATOM      7  C   UNL A   1      81.303  80.594  92.720  0.00  0.00    -0.009 A 
ATOM      8  C   UNL A   1      81.915  79.334  93.279  0.00  0.00    +0.048 C 
ENDROOT
BRANCH   1   9
ATOM      9  O   UNL A   1      81.973  79.904  90.598  0.00  0.00    -0.486 OA
BRANCH   9  10
ATOM     10  C   UNL A   1      81.191  79.010  89.829  0.00  0.00    +0.282 C 
BRANCH  10  12
ATOM     11  C   UNL A   1      81.022  76.990  88.397  0.00  0.00    +0.067 C 
ATOM     12  C   UNL A   1      82.002  77.877  89.171  0.00  0.00    +0.096 C 
BRANCH  12  13
ATOM     13  N   UNL A   1      82.711  77.057  90.163  0.00  0.00    +0.223 N 
ATOM     14  H   UNL A   1      83.301  77.656  90.739  0.00  0.00    +0.200 HD
ATOM     15  H   UNL A   1      83.291  76.369  89.682  0.00  0.00    +0.200 HD
ATOM     16  H   UNL A   1      82.033  76.577  90.754  0.00  0.00    +0.200 HD
ENDBRANCH  12  13
ENDBRANCH  10  12
ENDBRANCH   9  10
ENDBRANCH   1   9
TORSDOF 4
ENDMDL
MODEL 4
REMARK VINA RESULT:      -5.8     28.272     29.873
REMARK  Name = mexiletine.pdb
REMARK  7 active torsions:
REMARK  status: ('A' for Active; 'I' for Inactive)
REMARK    1  A    between atoms: N_1  and  C_12
REMARK    2  A    between atoms: C_2  and  O_13
REMARK    3  A    between atoms: C_3  and  C_4
REMARK    4  A    between atoms: C_8  and  C_9
REMARK    5  A    between atoms: C_10  and  C_12
REMARK    6  A    between atoms: C_10  and  O_13
REMARK    7  A    between atoms: C_11  and  C_12
REMARK                            x       y       z     vdW  Elec       q    Type
REMARK                         _______ _______ _______ _____ _____    ______ ____
ROOT
ATOM      1  C   UNL A   1      81.296  80.850  91.323  0.00  0.00    +0.127 A 
ATOM      2  C   UNL A   1      81.342  80.537  92.704  0.00  0.00    -0.009 A 
ATOM      3  C   UNL A   1      81.915  79.316  93.383  0.00  0.00    +0.048 C 
ATOM      4  C   UNL A   1      80.715  81.423  93.614  0.00  0.00    +0.007 A 
ATOM      5  C   UNL A   1      80.101  82.594  93.199  0.00  0.00    +0.001 A 
ATOM      6  C   UNL A   1      80.089  82.918  91.853  0.00  0.00    +0.007 A 
ATOM      7  C   UNL A   1      80.677  82.061  90.909  0.00  0.00    -0.009 A 
ATOM      8  C   UNL A   1      80.626  82.472  89.458  0.00  0.00    +0.048 C 
ENDROOT
BRANCH   1   9
ATOM      9  O   UNL A   1      81.763  80.107  90.253  0.00  0.00    -0.486 OA
BRANCH   9  10
ATOM     10  C   UNL A   1      81.061  78.923  89.924  0.00  0.00    +0.282 C 
BRANCH  10  12
ATOM     11  C   UNL A   1      80.964  76.944  88.430  0.00  0.00    +0.067 C 
ATOM     12  C   UNL A   1      81.916  77.875  89.187  0.00  0.00    +0.096 C 
BRANCH  12  13
ATOM     13  N   UNL A   1      82.732  77.076  90.112  0.00  0.00    +0.223 N 
ATOM     14  H   UNL A   1      83.703  77.083  89.801  0.00  0.00    +0.200 HD
ATOM     15  H   UNL A   1      82.387  76.117  90.129  0.00  0.00    +0.200 HD
ATOM     16  H   UNL A   1      82.672  77.476  91.048  0.00  0.00    +0.200 HD
ENDBRANCH  12  13
ENDBRANCH  10  12
ENDBRANCH   9  10
ENDBRANCH   1   9
TORSDOF 4
ENDMDL
MODEL 5
REMARK VINA RESULT:      -5.8      2.366      5.034
REMARK  Name = mexiletine.pdb
REMARK  7 active torsions:
REMARK  status: ('A' for Active; 'I' for Inactive)
REMARK    1  A    between atoms: N_1  and  C_12
REMARK    2  A    between atoms: C_2  and  O_13
REMARK    3  A    between atoms: C_3  and  C_4
REMARK    4  A    between atoms: C_8  and  C_9
REMARK    5  A    between atoms: C_10  and  C_12
REMARK    6  A    between atoms: C_10  and  O_13
REMARK    7  A    between atoms: C_11  and  C_12
REMARK                            x       y       z     vdW  Elec       q    Type
REMARK                         _______ _______ _______ _____ _____    ______ ____
ROOT
ATOM      1  C   UNL A   1     109.767  72.216  88.007  0.00  0.00    +0.127 A 
ATOM      2  C   UNL A   1     111.142  72.350  87.695  0.00  0.00    -0.009 A 
ATOM      3  C   UNL A   1     111.904  71.807  86.511  0.00  0.00    +0.048 C 
ATOM      4  C   UNL A   1     111.979  73.015  88.624  0.00  0.00    +0.007 A 
ATOM      5  C   UNL A   1     111.487  73.567  89.797  0.00  0.00    +0.001 A 
ATOM      6  C   UNL A   1     110.137  73.469  90.083  0.00  0.00    +0.007 A 
ATOM      7  C   UNL A   1     109.269  72.799  89.205  0.00  0.00    -0.009 A 
ATOM      8  C   UNL A   1     107.810  72.725  89.579  0.00  0.00    +0.048 C 
ENDROOT
BRANCH   1   9
ATOM      9  O   UNL A   1     108.781  71.548  87.302  0.00  0.00    -0.486 OA
BRANCH   9  10
ATOM     10  C   UNL A   1     108.415  72.069  86.038  0.00  0.00    +0.282 C 
BRANCH  10  12
ATOM     11  C   UNL A   1     106.136  71.374  86.730  0.00  0.00    +0.067 C 
ATOM     12  C   UNL A   1     107.057  71.557  85.520  0.00  0.00    +0.096 C 
BRANCH  12  13
ATOM     13  N   UNL A   1     107.182  70.275  84.813  0.00  0.00    +0.223 N 
ATOM     14  H   UNL A   1     106.308  70.066  84.333  0.00  0.00    +0.200 HD
ATOM     15  H   UNL A   1     107.387  69.535  85.485  0.00  0.00    +0.200 HD
ATOM     16  H   UNL A   1     107.939  70.336  84.132  0.00  0.00    +0.200 HD
ENDBRANCH  12  13
ENDBRANCH  10  12
ENDBRANCH   9  10
ENDBRANCH   1   9
TORSDOF 4
ENDMDL
MODEL 6
REMARK VINA RESULT:      -5.8     75.442     77.316
REMARK  Name = mexiletine.pdb
REMARK  7 active torsions:
REMARK  status: ('A' for Active; 'I' for Inactive)
REMARK    1  A    between atoms: N_1  and  C_12
REMARK    2  A    between atoms: C_2  and  O_13
REMARK    3  A    between atoms: C_3  and  C_4
REMARK    4  A    between atoms: C_8  and  C_9
REMARK    5  A    between atoms: C_10  and  C_12
REMARK    6  A    between atoms: C_10  and  O_13
REMARK    7  A    between atoms: C_11  and  C_12
REMARK                            x       y       z     vdW  Elec       q    Type
REMARK                         _______ _______ _______ _____ _____    ______ ____
ROOT
ATOM      1  C   UNL A   1      32.454  77.204  91.200  0.00  0.00    +0.127 A 
ATOM      2  C   UNL A   1      33.182  77.188  89.985  0.00  0.00    -0.009 A 
ATOM      3  C   UNL A   1      32.761  76.665  88.633  0.00  0.00    +0.048 C 
ATOM      4  C   UNL A   1      34.521  77.648  89.999  0.00  0.00    +0.007 A 
ATOM      5  C   UNL A   1      35.119  78.146  91.147  0.00  0.00    +0.001 A 
ATOM      6  C   UNL A   1      34.394  78.197  92.325  0.00  0.00    +0.007 A 
ATOM      7  C   UNL A   1      33.070  77.731  92.369  0.00  0.00    -0.009 A 
ATOM      8  C   UNL A   1      32.340  77.811  93.686  0.00  0.00    +0.048 C 
ENDROOT
BRANCH   1   9
ATOM      9  O   UNL A   1      31.175  76.738  91.448  0.00  0.00    -0.486 OA
BRANCH   9  10
ATOM     10  C   UNL A   1      30.892  75.395  91.105  0.00  0.00    +0.282 C 
BRANCH  10  12
ATOM     11  C   UNL A   1      32.169  73.930  92.649  0.00  0.00    +0.067 C 
ATOM     12  C   UNL A   1      30.768  74.453  92.319  0.00  0.00    +0.096 C 
BRANCH  12  13
ATOM     13  N   UNL A   1      29.881  73.313  92.047  0.00  0.00    +0.223 N 
ATOM     14  H   UNL A   1      29.123  73.302  92.729  0.00  0.00    +0.200 HD
ATOM     15  H   UNL A   1      30.413  72.445  92.114  0.00  0.00    +0.200 HD
ATOM     16  H   UNL A   1      29.493  73.402  91.108  0.00  0.00    +0.200 HD
ENDBRANCH  12  13
ENDBRANCH  10  12
ENDBRANCH   9  10
ENDBRANCH   1   9
TORSDOF 4
ENDMDL
MODEL 7
REMARK VINA RESULT:      -5.7     57.818     58.715
REMARK  Name = mexiletine.pdb
REMARK  7 active torsions:
REMARK  status: ('A' for Active; 'I' for Inactive)
REMARK    1  A    between atoms: N_1  and  C_12
REMARK    2  A    between atoms: C_2  and  O_13
REMARK    3  A    between atoms: C_3  and  C_4
REMARK    4  A    between atoms: C_8  and  C_9
REMARK    5  A    between atoms: C_10  and  C_12
REMARK    6  A    between atoms: C_10  and  O_13
REMARK    7  A    between atoms: C_11  and  C_12
REMARK                            x       y       z     vdW  Elec       q    Type
REMARK                         _______ _______ _______ _____ _____    ______ ____
ROOT
ATOM      1  C   UNL A   1      68.522 114.398  90.953  0.00  0.00    +0.127 A 
ATOM      2  C   UNL A   1      68.700 115.592  91.695  0.00  0.00    -0.009 A 
ATOM      3  C   UNL A   1      67.790 116.212  92.728  0.00  0.00    +0.048 C 
ATOM      4  C   UNL A   1      69.836 116.391  91.420  0.00  0.00    +0.007 A 
ATOM      5  C   UNL A   1      70.789 116.020  90.483  0.00  0.00    +0.001 A 
ATOM      6  C   UNL A   1      70.635 114.835  89.785  0.00  0.00    +0.007 A 
ATOM      7  C   UNL A   1      69.513 114.019  90.005  0.00  0.00    -0.009 A 
ATOM      8  C   UNL A   1      69.404 112.744  89.208  0.00  0.00    +0.048 C 
ENDROOT
BRANCH   1   9
ATOM      9  O   UNL A   1      67.464 113.507  90.988  0.00  0.00    -0.486 OA
BRANCH   9  10
ATOM     10  C   UNL A   1      67.421 112.588  92.064  0.00  0.00    +0.282 C 
BRANCH  10  12
ATOM     11  C   UNL A   1      67.135 110.431  90.871  0.00  0.00    +0.067 C 
ATOM     12  C   UNL A   1      66.458 111.407  91.838  0.00  0.00    +0.096 C 
BRANCH  12  13
ATOM     13  N   UNL A   1      65.176 111.840  91.265  0.00  0.00    +0.223 N 
ATOM     14  H   UNL A   1      64.503 111.993  92.015  0.00  0.00    +0.200 HD
ATOM     15  H   UNL A   1      64.825 111.118  90.635  0.00  0.00    +0.200 HD
ATOM     16  H   UNL A   1      65.312 112.707  90.747  0.00  0.00    +0.200 HD
ENDBRANCH  12  13
ENDBRANCH  10  12
ENDBRANCH   9  10
ENDBRANCH   1   9
TORSDOF 4
ENDMDL
MODEL 8
REMARK VINA RESULT:      -5.7     34.806     36.036
REMARK  Name = mexiletine.pdb
REMARK  7 active torsions:
REMARK  status: ('A' for Active; 'I' for Inactive)
REMARK    1  A    between atoms: N_1  and  C_12
REMARK    2  A    between atoms: C_2  and  O_13
REMARK    3  A    between atoms: C_3  and  C_4
REMARK    4  A    between atoms: C_8  and  C_9
REMARK    5  A    between atoms: C_10  and  C_12
REMARK    6  A    between atoms: C_10  and  O_13
REMARK    7  A    between atoms: C_11  and  C_12
REMARK                            x       y       z     vdW  Elec       q    Type
REMARK                         _______ _______ _______ _____ _____    ______ ____
ROOT
ATOM      1  C   UNL A   1      75.111  75.824  78.791  0.00  0.00    +0.127 A 
ATOM      2  C   UNL A   1      74.981  75.776  77.382  0.00  0.00    -0.009 A 
ATOM      3  C   UNL A   1      74.235  74.776  76.531  0.00  0.00    +0.048 C 
ATOM      4  C   UNL A   1      75.684  76.732  76.609  0.00  0.00    +0.007 A 
ATOM      5  C   UNL A   1      76.455  77.727  77.190  0.00  0.00    +0.001 A 
ATOM      6  C   UNL A   1      76.552  77.797  78.569  0.00  0.00    +0.007 A 
ATOM      7  C   UNL A   1      75.892  76.858  79.379  0.00  0.00    -0.009 A 
ATOM      8  C   UNL A   1      76.043  76.989  80.873  0.00  0.00    +0.048 C 
ENDROOT
BRANCH   1   9
ATOM      9  O   UNL A   1      74.590  74.960  79.738  0.00  0.00    -0.486 OA
BRANCH   9  10
ATOM     10  C   UNL A   1      73.212  75.076  80.039  0.00  0.00    +0.282 C 
BRANCH  10  12
ATOM     11  C   UNL A   1      73.914  73.529  81.848  0.00  0.00    +0.067 C 
ATOM     12  C   UNL A   1      72.705  74.036  81.057  0.00  0.00    +0.096 C 
BRANCH  12  13
ATOM     13  N   UNL A   1      72.048  72.896  80.402  0.00  0.00    +0.223 N 
ATOM     14  H   UNL A   1      72.744  72.187  80.175  0.00  0.00    +0.200 HD
ATOM     15  H   UNL A   1      71.592  73.213  79.546  0.00  0.00    +0.200 HD
ATOM     16  H   UNL A   1      71.351  72.499  81.032  0.00  0.00    +0.200 HD
ENDBRANCH  12  13
ENDBRANCH  10  12
ENDBRANCH   9  10
ENDBRANCH   1   9
TORSDOF 4
ENDMDL
MODEL 9
REMARK VINA RESULT:      -5.7     57.900     58.836
REMARK  Name = mexiletine.pdb
REMARK  7 active torsions:
REMARK  status: ('A' for Active; 'I' for Inactive)
REMARK    1  A    between atoms: N_1  and  C_12
REMARK    2  A    between atoms: C_2  and  O_13
REMARK    3  A    between atoms: C_3  and  C_4
REMARK    4  A    between atoms: C_8  and  C_9
REMARK    5  A    between atoms: C_10  and  C_12
REMARK    6  A    between atoms: C_10  and  O_13
REMARK    7  A    between atoms: C_11  and  C_12
REMARK                            x       y       z     vdW  Elec       q    Type
REMARK                         _______ _______ _______ _____ _____    ______ ____
ROOT
ATOM      1  C   UNL A   1      68.483 114.454  91.182  0.00  0.00    +0.127 A 
ATOM      2  C   UNL A   1      69.323 114.621  90.055  0.00  0.00    -0.009 A 
ATOM      3  C   UNL A   1      69.309 113.876  88.742  0.00  0.00    +0.048 C 
ATOM      4  C   UNL A   1      70.385 115.554  90.141  0.00  0.00    +0.007 A 
ATOM      5  C   UNL A   1      70.598 116.328  91.272  0.00  0.00    +0.001 A 
ATOM      6  C   UNL A   1      69.753 116.191  92.360  0.00  0.00    +0.007 A 
ATOM      7  C   UNL A   1      68.699 115.263  92.332  0.00  0.00    -0.009 A 
ATOM      8  C   UNL A   1      67.819 115.161  93.553  0.00  0.00    +0.048 C 
ENDROOT
BRANCH   1   9
ATOM      9  O   UNL A   1      67.442 113.559  91.361  0.00  0.00    -0.486 OA
BRANCH   9  10
ATOM     10  C   UNL A   1      67.775 112.191  91.503  0.00  0.00    +0.282 C 
BRANCH  10  12
ATOM     11  C   UNL A   1      66.728 110.034  90.863  0.00  0.00    +0.067 C 
ATOM     12  C   UNL A   1      66.561 111.274  91.746  0.00  0.00    +0.096 C 
BRANCH  12  13
ATOM     13  N   UNL A   1      65.292 111.936  91.410  0.00  0.00    +0.223 N 
ATOM     14  H   UNL A   1      65.274 112.149  90.414  0.00  0.00    +0.200 HD
ATOM     15  H   UNL A   1      65.208 112.800  91.945  0.00  0.00    +0.200 HD
ATOM     16  H   UNL A   1      64.516 111.316  91.640  0.00  0.00    +0.200 HD
ENDBRANCH  12  13
ENDBRANCH  10  12
ENDBRANCH   9  10
ENDBRANCH   1   9
TORSDOF 4
ENDMDL
MODEL 10
REMARK VINA RESULT:      -5.7      1.683      3.434
REMARK  Name = mexiletine.pdb
REMARK  7 active torsions:
REMARK  status: ('A' for Active; 'I' for Inactive)
REMARK    1  A    between atoms: N_1  and  C_12
REMARK    2  A    between atoms: C_2  and  O_13
REMARK    3  A    between atoms: C_3  and  C_4
REMARK    4  A    between atoms: C_8  and  C_9
REMARK    5  A    between atoms: C_10  and  C_12
REMARK    6  A    between atoms: C_10  and  O_13
REMARK    7  A    between atoms: C_11  and  C_12
REMARK                            x       y       z     vdW  Elec       q    Type
REMARK                         _______ _______ _______ _____ _____    ______ ____
ROOT
ATOM      1  C   UNL A   1     110.273  73.245  88.182  0.00  0.00    +0.127 A 
ATOM      2  C   UNL A   1     109.444  72.518  87.292  0.00  0.00    -0.009 A 
ATOM      3  C   UNL A   1     109.564  72.364  85.795  0.00  0.00    +0.048 C 
ATOM      4  C   UNL A   1     108.288  71.889  87.814  0.00  0.00    +0.007 A 
ATOM      5  C   UNL A   1     107.971  71.930  89.164  0.00  0.00    +0.001 A 
ATOM      6  C   UNL A   1     108.802  72.609  90.038  0.00  0.00    +0.007 A 
ATOM      7  C   UNL A   1     109.948  73.269  89.566  0.00  0.00    -0.009 A 
ATOM      8  C   UNL A   1     110.808  73.992  90.572  0.00  0.00    +0.048 C 
ENDROOT
BRANCH   1   9
ATOM      9  O   UNL A   1     111.398  73.998  87.895  0.00  0.00    -0.486 OA
BRANCH   9  10
ATOM     10  C   UNL A   1     112.609  73.302  87.665  0.00  0.00    +0.282 C 
BRANCH  10  12
ATOM     11  C   UNL A   1     114.631  74.731  87.500  0.00  0.00    +0.067 C 
ATOM     12  C   UNL A   1     113.809  73.859  88.454  0.00  0.00    +0.096 C 
BRANCH  12  13
ATOM     13  N   UNL A   1     114.666  72.791  88.986  0.00  0.00    +0.223 N 
ATOM     14  H   UNL A   1     115.621  72.924  88.655  0.00  0.00    +0.200 HD
ATOM     15  H   UNL A   1     114.318  71.886  88.667  0.00  0.00    +0.200 HD
ATOM     16  H   UNL A   1     114.652  72.820  90.005  0.00  0.00    +0.200 HD
ENDBRANCH  12  13
ENDBRANCH  10  12
ENDBRANCH   9  10
ENDBRANCH   1   9
TORSDOF 4
ENDMDL
MODEL 11
REMARK VINA RESULT:      -5.7     76.633     77.571
REMARK  Name = mexiletine.pdb
REMARK  7 active torsions:
REMARK  status: ('A' for Active; 'I' for Inactive)
REMARK    1  A    between atoms: N_1  and  C_12
REMARK    2  A    between atoms: C_2  and  O_13
REMARK    3  A    between atoms: C_3  and  C_4
REMARK    4  A    between atoms: C_8  and  C_9
REMARK    5  A    between atoms: C_10  and  C_12
REMARK    6  A    between atoms: C_10  and  O_13
REMARK    7  A    between atoms: C_11  and  C_12
REMARK                            x       y       z     vdW  Elec       q    Type
REMARK                         _______ _______ _______ _____ _____    ______ ____
ROOT
ATOM      1  C   UNL A   1      32.644  77.145  91.275  0.00  0.00    +0.127 A 
ATOM      2  C   UNL A   1      32.485  78.261  92.133  0.00  0.00    -0.009 A 
ATOM      3  C   UNL A   1      31.970  78.302  93.551  0.00  0.00    +0.048 C 
ATOM      4  C   UNL A   1      32.765  79.549  91.618  0.00  0.00    +0.007 A 
ATOM      5  C   UNL A   1      33.225  79.743  90.323  0.00  0.00    +0.001 A 
ATOM      6  C   UNL A   1      33.416  78.649  89.497  0.00  0.00    +0.007 A 
ATOM      7  C   UNL A   1      33.130  77.352  89.954  0.00  0.00    -0.009 A 
ATOM      8  C   UNL A   1      33.357  76.205  89.002  0.00  0.00    +0.048 C 
ENDROOT
BRANCH   1   9
ATOM      9  O   UNL A   1      32.361  75.814  91.526  0.00  0.00    -0.486 OA
BRANCH   9  10
ATOM     10  C   UNL A   1      30.999  75.443  91.622  0.00  0.00    +0.282 C 
BRANCH  10  12
ATOM     11  C   UNL A   1      32.087  73.553  92.804  0.00  0.00    +0.067 C 
ATOM     12  C   UNL A   1      30.742  74.240  92.549  0.00  0.00    +0.096 C 
BRANCH  12  13
ATOM     13  N   UNL A   1      29.813  73.270  91.953  0.00  0.00    +0.223 N 
ATOM     14  H   UNL A   1      30.315  72.682  91.289  0.00  0.00    +0.200 HD
ATOM     15  H   UNL A   1      29.066  73.768  91.469  0.00  0.00    +0.200 HD
ATOM     16  H   UNL A   1      29.413  72.687  92.688  0.00  0.00    +0.200 HD
ENDBRANCH  12  13
ENDBRANCH  10  12
ENDBRANCH   9  10
ENDBRANCH   1   9
TORSDOF 4
ENDMDL
MODEL 12
REMARK VINA RESULT:      -5.7     34.765     36.000
REMARK  Name = mexiletine.pdb
REMARK  7 active torsions:
REMARK  status: ('A' for Active; 'I' for Inactive)
REMARK    1  A    between atoms: N_1  and  C_12
REMARK    2  A    between atoms: C_2  and  O_13
REMARK    3  A    between atoms: C_3  and  C_4
REMARK    4  A    between atoms: C_8  and  C_9
REMARK    5  A    between atoms: C_10  and  C_12
REMARK    6  A    between atoms: C_10  and  O_13
REMARK    7  A    between atoms: C_11  and  C_12
REMARK                            x       y       z     vdW  Elec       q    Type
REMARK                         _______ _______ _______ _____ _____    ______ ____
ROOT
ATOM      1  C   UNL A   1      75.111  75.795  78.773  0.00  0.00    +0.127 A 
ATOM      2  C   UNL A   1      75.899  76.780  79.418  0.00  0.00    -0.009 A 
ATOM      3  C   UNL A   1      76.128  76.995  80.894  0.00  0.00    +0.048 C 
ATOM      4  C   UNL A   1      76.523  77.770  78.619  0.00  0.00    +0.007 A 
ATOM      5  C   UNL A   1      76.418  77.777  77.237  0.00  0.00    +0.001 A 
ATOM      6  C   UNL A   1      75.679  76.792  76.604  0.00  0.00    +0.007 A 
ATOM      7  C   UNL A   1      75.022  75.801  77.353  0.00  0.00    -0.009 A 
ATOM      8  C   UNL A   1      74.231  74.760  76.602  0.00  0.00    +0.048 C 
ENDROOT
BRANCH   1   9
ATOM      9  O   UNL A   1      74.352  74.787  79.340  0.00  0.00    -0.486 OA
BRANCH   9  10
ATOM     10  C   UNL A   1      73.188  75.167  80.049  0.00  0.00    +0.282 C 
BRANCH  10  12
ATOM     11  C   UNL A   1      73.873  73.601  81.848  0.00  0.00    +0.067 C 
ATOM     12  C   UNL A   1      72.676  74.095  81.030  0.00  0.00    +0.096 C 
BRANCH  12  13
ATOM     13  N   UNL A   1      72.067  72.954  80.334  0.00  0.00    +0.223 N 
ATOM     14  H   UNL A   1      71.062  72.946  80.509  0.00  0.00    +0.200 HD
ATOM     15  H   UNL A   1      72.479  72.086  80.678  0.00  0.00    +0.200 HD
ATOM     16  H   UNL A   1      72.237  73.037  79.332  0.00  0.00    +0.200 HD
ENDBRANCH  12  13
ENDBRANCH  10  12
ENDBRANCH   9  10
ENDBRANCH   1   9
TORSDOF 4
ENDMDL
MODEL 13
REMARK VINA RESULT:      -5.6      1.615      2.595
REMARK  Name = mexiletine.pdb
REMARK  7 active torsions:
REMARK  status: ('A' for Active; 'I' for Inactive)
REMARK    1  A    between atoms: N_1  and  C_12
REMARK    2  A    between atoms: C_2  and  O_13
REMARK    3  A    between atoms: C_3  and  C_4
REMARK    4  A    between atoms: C_8  and  C_9
REMARK    5  A    between atoms: C_10  and  C_12
REMARK    6  A    between atoms: C_10  and  O_13
REMARK    7  A    between atoms: C_11  and  C_12
REMARK                            x       y       z     vdW  Elec       q    Type
REMARK                         _______ _______ _______ _____ _____    ______ ____
ROOT
ATOM      1  C   UNL A   1     110.256  73.181  88.246  0.00  0.00    +0.127 A 
ATOM      2  C   UNL A   1     110.021  73.232  89.641  0.00  0.00    -0.009 A 
ATOM      3  C   UNL A   1     110.861  73.867  90.723  0.00  0.00    +0.048 C 
ATOM      4  C   UNL A   1     108.893  72.548  90.158  0.00  0.00    +0.007 A 
ATOM      5  C   UNL A   1     108.002  71.872  89.339  0.00  0.00    +0.001 A 
ATOM      6  C   UNL A   1     108.211  71.855  87.971  0.00  0.00    +0.007 A 
ATOM      7  C   UNL A   1     109.328  72.498  87.412  0.00  0.00    -0.009 A 
ATOM      8  C   UNL A   1     109.499  72.437  85.915  0.00  0.00    +0.048 C 
ENDROOT
BRANCH   1   9
ATOM      9  O   UNL A   1     111.321  73.699  87.528  0.00  0.00    -0.486 OA
BRANCH   9  10
ATOM     10  C   UNL A   1     112.554  73.008  87.600  0.00  0.00    +0.282 C 
BRANCH  10  12
ATOM     11  C   UNL A   1     114.388  74.668  87.405  0.00  0.00    +0.067 C 
ATOM     12  C   UNL A   1     113.645  73.758  88.388  0.00  0.00    +0.096 C 
BRANCH  12  13
ATOM     13  N   UNL A   1     114.607  72.840  89.013  0.00  0.00    +0.223 N 
ATOM     14  H   UNL A   1     115.172  72.396  88.290  0.00  0.00    +0.200 HD
ATOM     15  H   UNL A   1     114.102  72.124  89.537  0.00  0.00    +0.200 HD
ATOM     16  H   UNL A   1     115.212  73.362  89.646  0.00  0.00    +0.200 HD
ENDBRANCH  12  13
ENDBRANCH  10  12
ENDBRANCH   9  10
ENDBRANCH   1   9
TORSDOF 4
ENDMDL
MODEL 14
REMARK VINA RESULT:      -5.6     32.989     34.414
REMARK  Name = mexiletine.pdb
REMARK  7 active torsions:
REMARK  status: ('A' for Active; 'I' for Inactive)
REMARK    1  A    between atoms: N_1  and  C_12
REMARK    2  A    between atoms: C_2  and  O_13
REMARK    3  A    between atoms: C_3  and  C_4
REMARK    4  A    between atoms: C_8  and  C_9
REMARK    5  A    between atoms: C_10  and  C_12
REMARK    6  A    between atoms: C_10  and  O_13
REMARK    7  A    between atoms: C_11  and  C_12
REMARK                            x       y       z     vdW  Elec       q    Type
REMARK                         _______ _______ _______ _____ _____    ______ ____
ROOT
ATOM      1  C   UNL A   1      80.624  90.372  90.787  0.00  0.00    +0.127 A 
ATOM      2  C   UNL A   1      80.258  91.648  91.280  0.00  0.00    -0.009 A 
ATOM      3  C   UNL A   1      79.835  92.878  90.513  0.00  0.00    +0.048 C 
ATOM      4  C   UNL A   1      80.352  91.882  92.674  0.00  0.00    +0.007 A 
ATOM      5  C   UNL A   1      80.749  90.894  93.562  0.00  0.00    +0.001 A 
ATOM      6  C   UNL A   1      81.071  89.635  93.083  0.00  0.00    +0.007 A 
ATOM      7  C   UNL A   1      81.015  89.361  91.707  0.00  0.00    -0.009 A 
ATOM      8  C   UNL A   1      81.382  87.971  91.252  0.00  0.00    +0.048 C 
ENDROOT
BRANCH   1   9
ATOM      9  O   UNL A   1      80.688  89.939  89.474  0.00  0.00    -0.486 OA
BRANCH   9  10
ATOM     10  C   UNL A   1      79.467  89.639  88.825  0.00  0.00    +0.282 C 
BRANCH  10  12
ATOM     11  C   UNL A   1      78.770  87.266  88.619  0.00  0.00    +0.067 C 
ATOM     12  C   UNL A   1      79.530  88.395  87.918  0.00  0.00    +0.096 C 
BRANCH  12  13
ATOM     13  N   UNL A   1      80.912  87.962  87.669  0.00  0.00    +0.223 N 
ATOM     14  H   UNL A   1      81.079  87.072  88.139  0.00  0.00    +0.200 HD
ATOM     15  H   UNL A   1      81.559  88.664  88.030  0.00  0.00    +0.200 HD
ATOM     16  H   UNL A   1      81.057  87.849  86.666  0.00  0.00    +0.200 HD
ENDBRANCH  12  13
ENDBRANCH  10  12
ENDBRANCH   9  10
ENDBRANCH   1   9
TORSDOF 4
ENDMDL
MODEL 15
REMARK VINA RESULT:      -5.6     33.038     34.439
REMARK  Name = mexiletine.pdb
REMARK  7 active torsions:
REMARK  status: ('A' for Active; 'I' for Inactive)
REMARK    1  A    between atoms: N_1  and  C_12
REMARK    2  A    between atoms: C_2  and  O_13
REMARK    3  A    between atoms: C_3  and  C_4
REMARK    4  A    between atoms: C_8  and  C_9
REMARK    5  A    between atoms: C_10  and  C_12
REMARK    6  A    between atoms: C_10  and  O_13
REMARK    7  A    between atoms: C_11  and  C_12
REMARK                            x       y       z     vdW  Elec       q    Type
REMARK                         _______ _______ _______ _____ _____    ______ ____
ROOT
ATOM      1  C   UNL A   1      80.598  90.365  90.650  0.00  0.00    +0.127 A 
ATOM      2  C   UNL A   1      80.975  89.361  91.574  0.00  0.00    -0.009 A 
ATOM      3  C   UNL A   1      81.316  87.913  91.317  0.00  0.00    +0.048 C 
ATOM      4  C   UNL A   1      80.980  89.685  92.953  0.00  0.00    +0.007 A 
ATOM      5  C   UNL A   1      80.668  90.956  93.413  0.00  0.00    +0.001 A 
ATOM      6  C   UNL A   1      80.336  91.947  92.506  0.00  0.00    +0.007 A 
ATOM      7  C   UNL A   1      80.295  91.669  91.130  0.00  0.00    -0.009 A 
ATOM      8  C   UNL A   1      79.922  92.794  90.196  0.00  0.00    +0.048 C 
ENDROOT
BRANCH   1   9
ATOM      9  O   UNL A   1      80.445  90.264  89.278  0.00  0.00    -0.486 OA
BRANCH   9  10
ATOM     10  C   UNL A   1      79.255  89.667  88.796  0.00  0.00    +0.282 C 
BRANCH  10  12
ATOM     11  C   UNL A   1      78.805  87.236  88.586  0.00  0.00    +0.067 C 
ATOM     12  C   UNL A   1      79.492  88.428  87.912  0.00  0.00    +0.096 C 
BRANCH  12  13
ATOM     13  N   UNL A   1      80.921  88.129  87.750  0.00  0.00    +0.223 N 
ATOM     14  H   UNL A   1      81.212  87.462  88.464  0.00  0.00    +0.200 HD
ATOM     15  H   UNL A   1      81.461  88.989  87.846  0.00  0.00    +0.200 HD
ATOM     16  H   UNL A   1      81.081  87.728  86.826  0.00  0.00    +0.200 HD
ENDBRANCH  12  13
ENDBRANCH  10  12
ENDBRANCH   9  10
ENDBRANCH   1   9
TORSDOF 4
ENDMDL
MODEL 16
REMARK VINA RESULT:      -5.6     32.024     33.753
REMARK  Name = mexiletine.pdb
REMARK  7 active torsions:
REMARK  status: ('A' for Active; 'I' for Inactive)
REMARK    1  A    between atoms: N_1  and  C_12
REMARK    2  A    between atoms: C_2  and  O_13
REMARK    3  A    between atoms: C_3  and  C_4
REMARK    4  A    between atoms: C_8  and  C_9
REMARK    5  A    between atoms: C_10  and  C_12
REMARK    6  A    between atoms: C_10  and  O_13
REMARK    7  A    between atoms: C_11  and  C_12
REMARK                            x       y       z     vdW  Elec       q    Type
REMARK                         _______ _______ _______ _____ _____    ______ ____
ROOT
ATOM      1  C   UNL A   1      79.169  85.682  89.069  0.00  0.00    +0.127 A 
ATOM      2  C   UNL A   1      79.882  86.705  88.396  0.00  0.00    -0.009 A 
ATOM      3  C   UNL A   1      79.430  88.100  88.038  0.00  0.00    +0.048 C 
ATOM      4  C   UNL A   1      81.178  86.409  87.907  0.00  0.00    +0.007 A 
ATOM      5  C   UNL A   1      81.776  85.173  88.102  0.00  0.00    +0.001 A 
ATOM      6  C   UNL A   1      81.093  84.187  88.792  0.00  0.00    +0.007 A 
ATOM      7  C   UNL A   1      79.796  84.423  89.277  0.00  0.00    -0.009 A 
ATOM      8  C   UNL A   1      79.108  83.304  90.017  0.00  0.00    +0.048 C 
ENDROOT
BRANCH   1   9
ATOM      9  O   UNL A   1      77.876  85.710  89.560  0.00  0.00    -0.486 OA
BRANCH   9  10
ATOM     10  C   UNL A   1      76.838  86.019  88.649  0.00  0.00    +0.282 C 
BRANCH  10  12
ATOM     11  C   UNL A   1      76.693  84.692  86.558  0.00  0.00    +0.067 C 
ATOM     12  C   UNL A   1      76.187  84.783  88.001  0.00  0.00    +0.096 C 
BRANCH  12  13
ATOM     13  N   UNL A   1      74.720  84.871  87.990  0.00  0.00    +0.223 N 
ATOM     14  H   UNL A   1      74.422  85.652  88.574  0.00  0.00    +0.200 HD
ATOM     15  H   UNL A   1      74.325  84.004  88.354  0.00  0.00    +0.200 HD
ATOM     16  H   UNL A   1      74.396  85.018  87.034  0.00  0.00    +0.200 HD
ENDBRANCH  12  13
ENDBRANCH  10  12
ENDBRANCH   9  10
ENDBRANCH   1   9
TORSDOF 4
ENDMDL
MODEL 17
REMARK VINA RESULT:      -5.6     75.289     76.766
REMARK  Name = mexiletine.pdb
REMARK  7 active torsions:
REMARK  status: ('A' for Active; 'I' for Inactive)
REMARK    1  A    between atoms: N_1  and  C_12
REMARK    2  A    between atoms: C_2  and  O_13
REMARK    3  A    between atoms: C_3  and  C_4
REMARK    4  A    between atoms: C_8  and  C_9
REMARK    5  A    between atoms: C_10  and  C_12
REMARK    6  A    between atoms: C_10  and  O_13
REMARK    7  A    between atoms: C_11  and  C_12
REMARK                            x       y       z     vdW  Elec       q    Type
REMARK                         _______ _______ _______ _____ _____    ______ ____
ROOT
ATOM      1  C   UNL A   1      33.195  75.846  92.702  0.00  0.00    +0.127 A 
ATOM      2  C   UNL A   1      32.451  75.311  91.623  0.00  0.00    -0.009 A 
ATOM      3  C   UNL A   1      32.156  75.924  90.276  0.00  0.00    +0.048 C 
ATOM      4  C   UNL A   1      31.813  74.059  91.803  0.00  0.00    +0.007 A 
ATOM      5  C   UNL A   1      31.929  73.334  92.979  0.00  0.00    +0.001 A 
ATOM      6  C   UNL A   1      32.688  73.841  94.020  0.00  0.00    +0.007 A 
ATOM      7  C   UNL A   1      33.321  75.089  93.899  0.00  0.00    -0.009 A 
ATOM      8  C   UNL A   1      34.129  75.584  95.072  0.00  0.00    +0.048 C 
ENDROOT
BRANCH   1   9
ATOM      9  O   UNL A   1      33.833  77.072  92.789  0.00  0.00    -0.486 OA
BRANCH   9  10
ATOM     10  C   UNL A   1      33.029  78.233  92.709  0.00  0.00    +0.282 C 
BRANCH  10  12
ATOM     11  C   UNL A   1      34.847  78.983  91.197  0.00  0.00    +0.067 C 
ATOM     12  C   UNL A   1      33.355  79.138  91.506  0.00  0.00    +0.096 C 
BRANCH  12  13
ATOM     13  N   UNL A   1      33.067  80.552  91.782  0.00  0.00    +0.223 N 
ATOM     14  H   UNL A   1      32.406  80.620  92.556  0.00  0.00    +0.200 HD
ATOM     15  H   UNL A   1      32.663  80.985  90.951  0.00  0.00    +0.200 HD
ATOM     16  H   UNL A   1      33.931  81.033  92.030  0.00  0.00    +0.200 HD
ENDBRANCH  12  13
ENDBRANCH  10  12
ENDBRANCH   9  10
ENDBRANCH   1   9
TORSDOF 4
ENDMDL
MODEL 18
REMARK VINA RESULT:      -5.6     17.044     17.853
REMARK  Name = mexiletine.pdb
REMARK  7 active torsions:
REMARK  status: ('A' for Active; 'I' for Inactive)
REMARK    1  A    between atoms: N_1  and  C_12
REMARK    2  A    between atoms: C_2  and  O_13
REMARK    3  A    between atoms: C_3  and  C_4
REMARK    4  A    between atoms: C_8  and  C_9
REMARK    5  A    between atoms: C_10  and  C_12
REMARK    6  A    between atoms: C_10  and  O_13
REMARK    7  A    between atoms: C_11  and  C_12
REMARK                            x       y       z     vdW  Elec       q    Type
REMARK                         _______ _______ _______ _____ _____    ______ ____
ROOT
ATOM      1  C   UNL A   1      98.040  83.887  91.353  0.00  0.00    +0.127 A 
ATOM      2  C   UNL A   1      99.139  83.325  90.658  0.00  0.00    -0.009 A 
ATOM      3  C   UNL A   1     100.408  83.994  90.189  0.00  0.00    +0.048 C 
ATOM      4  C   UNL A   1      99.060  81.968  90.261  0.00  0.00    +0.007 A 
ATOM      5  C   UNL A   1      97.965  81.173  90.566  0.00  0.00    +0.001 A 
ATOM      6  C   UNL A   1      96.907  81.712  91.278  0.00  0.00    +0.007 A 
ATOM      7  C   UNL A   1      96.928  83.059  91.674  0.00  0.00    -0.009 A 
ATOM      8  C   UNL A   1      95.742  83.584  92.443  0.00  0.00    +0.048 C 
ENDROOT
BRANCH   1   9
ATOM      9  O   UNL A   1      97.856  85.194  91.769  0.00  0.00    -0.486 OA
BRANCH   9  10
ATOM     10  C   UNL A   1      97.408  86.128  90.805  0.00  0.00    +0.282 C 
BRANCH  10  12
ATOM     11  C   UNL A   1      96.794  87.351  92.875  0.00  0.00    +0.067 C 
ATOM     12  C   UNL A   1      96.492  87.227  91.379  0.00  0.00    +0.096 C 
BRANCH  12  13
ATOM     13  N   UNL A   1      95.069  86.909  91.201  0.00  0.00    +0.223 N 
ATOM     14  H   UNL A   1      94.569  87.088  92.072  0.00  0.00    +0.200 HD
ATOM     15  H   UNL A   1      94.969  85.926  90.947  0.00  0.00    +0.200 HD
ATOM     16  H   UNL A   1      94.681  87.492  90.460  0.00  0.00    +0.200 HD
ENDBRANCH  12  13
ENDBRANCH  10  12
ENDBRANCH   9  10
ENDBRANCH   1   9
TORSDOF 4
ENDMDL
MODEL 19
REMARK VINA RESULT:      -5.6     16.963     17.672
REMARK  Name = mexiletine.pdb
REMARK  7 active torsions:
REMARK  status: ('A' for Active; 'I' for Inactive)
REMARK    1  A    between atoms: N_1  and  C_12
REMARK    2  A    between atoms: C_2  and  O_13
REMARK    3  A    between atoms: C_3  and  C_4
REMARK    4  A    between atoms: C_8  and  C_9
REMARK    5  A    between atoms: C_10  and  C_12
REMARK    6  A    between atoms: C_10  and  O_13
REMARK    7  A    between atoms: C_11  and  C_12
REMARK                            x       y       z     vdW  Elec       q    Type
REMARK                         _______ _______ _______ _____ _____    ______ ____
ROOT
ATOM      1  C   UNL A   1      98.092  83.943  91.316  0.00  0.00    +0.127 A 
ATOM      2  C   UNL A   1      96.954  83.152  91.609  0.00  0.00    -0.009 A 
ATOM      3  C   UNL A   1      95.694  83.536  92.346  0.00  0.00    +0.048 C 
ATOM      4  C   UNL A   1      96.977  81.783  91.245  0.00  0.00    +0.007 A 
ATOM      5  C   UNL A   1      98.053  81.213  90.583  0.00  0.00    +0.001 A 
ATOM      6  C   UNL A   1      99.149  81.996  90.264  0.00  0.00    +0.007 A 
ATOM      7  C   UNL A   1      99.185  83.353  90.623  0.00  0.00    -0.009 A 
ATOM      8  C   UNL A   1     100.411  84.148  90.248  0.00  0.00    +0.048 C 
ENDROOT
BRANCH   1   9
ATOM      9  O   UNL A   1      98.331  85.267  91.640  0.00  0.00    -0.486 OA
BRANCH   9  10
ATOM     10  C   UNL A   1      97.679  86.256  90.866  0.00  0.00    +0.282 C 
BRANCH  10  12
ATOM     11  C   UNL A   1      97.069  86.950  93.169  0.00  0.00    +0.067 C 
ATOM     12  C   UNL A   1      96.775  87.196  91.686  0.00  0.00    +0.096 C 
BRANCH  12  13
ATOM     13  N   UNL A   1      95.348  86.951  91.433  0.00  0.00    +0.223 N 
ATOM     14  H   UNL A   1      95.017  87.586  90.708  0.00  0.00    +0.200 HD
ATOM     15  H   UNL A   1      94.819  87.109  92.291  0.00  0.00    +0.200 HD
ATOM     16  H   UNL A   1      95.219  85.987  91.126  0.00  0.00    +0.200 HD
ENDBRANCH  12  13
ENDBRANCH  10  12
ENDBRANCH   9  10
ENDBRANCH   1   9
TORSDOF 4
ENDMDL
MODEL 20
REMARK VINA RESULT:      -5.5     32.691     33.961
REMARK  Name = mexiletine.pdb
REMARK  7 active torsions:
REMARK  status: ('A' for Active; 'I' for Inactive)
REMARK    1  A    between atoms: N_1  and  C_12
REMARK    2  A    between atoms: C_2  and  O_13
REMARK    3  A    between atoms: C_3  and  C_4
REMARK    4  A    between atoms: C_8  and  C_9
REMARK    5  A    between atoms: C_10  and  C_12
REMARK    6  A    between atoms: C_10  and  O_13
REMARK    7  A    between atoms: C_11  and  C_12
REMARK                            x       y       z     vdW  Elec       q    Type
REMARK                         _______ _______ _______ _____ _____    ______ ____
ROOT
ATOM      1  C   UNL A   1      80.641  90.495  91.184  0.00  0.00    +0.127 A 
ATOM      2  C   UNL A   1      79.918  90.599  89.971  0.00  0.00    -0.009 A 
ATOM      3  C   UNL A   1      79.664  89.543  88.923  0.00  0.00    +0.048 C 
ATOM      4  C   UNL A   1      79.400  91.865  89.605  0.00  0.00    +0.007 A 
ATOM      5  C   UNL A   1      79.544  92.983  90.413  0.00  0.00    +0.001 A 
ATOM      6  C   UNL A   1      80.219  92.872  91.616  0.00  0.00    +0.007 A 
ATOM      7  C   UNL A   1      80.772  91.643  92.013  0.00  0.00    -0.009 A 
ATOM      8  C   UNL A   1      81.497  91.592  93.334  0.00  0.00    +0.048 C 
ENDROOT
BRANCH   1   9
ATOM      9  O   UNL A   1      81.300  89.395  91.706  0.00  0.00    -0.486 OA
BRANCH   9  10
ATOM     10  C   UNL A   1      82.495  88.986  91.067  0.00  0.00    +0.282 C 
BRANCH  10  12
ATOM     11  C   UNL A   1      83.029  88.248  93.375  0.00  0.00    +0.067 C 
ATOM     12  C   UNL A   1      83.647  88.673  92.040  0.00  0.00    +0.096 C 
BRANCH  12  13
ATOM     13  N   UNL A   1      84.516  89.837  92.262  0.00  0.00    +0.223 N 
ATOM     14  H   UNL A   1      84.147  90.395  93.031  0.00  0.00    +0.200 HD
ATOM     15  H   UNL A   1      84.548  90.404  91.415  0.00  0.00    +0.200 HD
ATOM     16  H   UNL A   1      85.457  89.519  92.493  0.00  0.00    +0.200 HD
ENDBRANCH  12  13
ENDBRANCH  10  12
ENDBRANCH   9  10
ENDBRANCH   1   9
TORSDOF 4
ENDMDL
