MODEL 1
REMARK VINA RESULT:      -5.6      0.000      0.000
REMARK  Name = mexiletine.pdb
REMARK  7 active torsions:
REMARK  status: ('A' for Active; 'I' for Inactive)
REMARK    1  A    between atoms: N_1  and  C_12
REMARK    2  A    between atoms: C_2  and  O_13
REMARK    3  A    between atoms: C_3  and  C_4
REMARK    4  A    between atoms: C_8  and  C_9
REMARK    5  A    between atoms: C_10  and  C_12
REMARK    6  A    between atoms: C_10  and  O_13
REMARK    7  A    between atoms: C_11  and  C_12
REMARK                            x       y       z     vdW  Elec       q    Type
REMARK                         _______ _______ _______ _____ _____    ______ ____
ROOT
ATOM      1  C   UNL A   1      81.618  76.709  90.293  0.00  0.00    +0.127 A 
ATOM      2  C   UNL A   1      80.260  76.625  90.686  0.00  0.00    -0.009 A 
ATOM      3  C   UNL A   1      79.101  75.980  89.966  0.00  0.00    +0.048 C 
ATOM      4  C   UNL A   1      79.864  77.281  91.877  0.00  0.00    +0.007 A 
ATOM      5  C   UNL A   1      80.767  77.962  92.680  0.00  0.00    +0.001 A 
ATOM      6  C   UNL A   1      82.101  78.011  92.314  0.00  0.00    +0.007 A 
ATOM      7  C   UNL A   1      82.540  77.396  91.130  0.00  0.00    -0.009 A 
ATOM      8  C   UNL A   1      84.006  77.492  90.789  0.00  0.00    +0.048 C 
ENDROOT
BRANCH   1   9
ATOM      9  O   UNL A   1      82.217  76.222  89.144  0.00  0.00    -0.486 OA
BRANCH   9  10
ATOM     10  C   UNL A   1      81.761  76.730  87.904  0.00  0.00    +0.282 C 
BRANCH  10  12
ATOM     11  C   UNL A   1      80.068  75.598  86.486  0.00  0.00    +0.067 C 
ATOM     12  C   UNL A   1      81.561  75.651  86.823  0.00  0.00    +0.096 C 
BRANCH  12  13
ATOM     13  N   UNL A   1      81.998  74.324  87.278  0.00  0.00    +0.223 N 
ATOM     14  H   UNL A   1      82.481  73.846  86.518  0.00  0.00    +0.200 HD
ATOM     15  H   UNL A   1      81.185  73.777  87.562  0.00  0.00    +0.200 HD
ATOM     16  H   UNL A   1      82.631  74.428  88.070  0.00  0.00    +0.200 HD
ENDBRANCH  12  13
ENDBRANCH  10  12
ENDBRANCH   9  10
ENDBRANCH   1   9
TORSDOF 4
ENDMDL
MODEL 2
REMARK VINA RESULT:      -5.5      8.454     10.105
REMARK  Name = mexiletine.pdb
REMARK  7 active torsions:
REMARK  status: ('A' for Active; 'I' for Inactive)
REMARK    1  A    between atoms: N_1  and  C_12
REMARK    2  A    between atoms: C_2  and  O_13
REMARK    3  A    between atoms: C_3  and  C_4
REMARK    4  A    between atoms: C_8  and  C_9
REMARK    5  A    between atoms: C_10  and  C_12
REMARK    6  A    between atoms: C_10  and  O_13
REMARK    7  A    between atoms: C_11  and  C_12
REMARK                            x       y       z     vdW  Elec       q    Type
REMARK                         _______ _______ _______ _____ _____    ______ ____
ROOT
ATOM      1  C   UNL A   1      83.225  67.416  86.976  0.00  0.00    +0.127 A 
ATOM      2  C   UNL A   1      82.639  66.228  86.475  0.00  0.00    -0.009 A 
ATOM      3  C   UNL A   1      81.377  66.060  85.664  0.00  0.00    +0.048 C 
ATOM      4  C   UNL A   1      83.239  64.990  86.812  0.00  0.00    +0.007 A 
ATOM      5  C   UNL A   1      84.394  64.914  87.576  0.00  0.00    +0.001 A 
ATOM      6  C   UNL A   1      84.987  66.078  88.033  0.00  0.00    +0.007 A 
ATOM      7  C   UNL A   1      84.418  67.329  87.745  0.00  0.00    -0.009 A 
ATOM      8  C   UNL A   1      85.112  68.558  88.277  0.00  0.00    +0.048 C 
ENDROOT
BRANCH   1   9
ATOM      9  O   UNL A   1      82.779  68.720  86.848  0.00  0.00    -0.486 OA
BRANCH   9  10
ATOM     10  C   UNL A   1      81.452  68.999  87.252  0.00  0.00    +0.282 C 
BRANCH  10  12
ATOM     11  C   UNL A   1      81.405  69.896  84.939  0.00  0.00    +0.067 C 
ATOM     12  C   UNL A   1      80.690  69.933  86.292  0.00  0.00    +0.096 C 
BRANCH  12  13
ATOM     13  N   UNL A   1      80.655  71.319  86.779  0.00  0.00    +0.223 N 
ATOM     14  H   UNL A   1      79.771  71.489  87.258  0.00  0.00    +0.200 HD
ATOM     15  H   UNL A   1      80.743  71.959  85.990  0.00  0.00    +0.200 HD
ATOM     16  H   UNL A   1      81.427  71.470  87.427  0.00  0.00    +0.200 HD
ENDBRANCH  12  13
ENDBRANCH  10  12
ENDBRANCH   9  10
ENDBRANCH   1   9
TORSDOF 4
ENDMDL
MODEL 3
REMARK VINA RESULT:      -5.5     15.246     17.496
REMARK  Name = mexiletine.pdb
REMARK  7 active torsions:
REMARK  status: ('A' for Active; 'I' for Inactive)
REMARK    1  A    between atoms: N_1  and  C_12
REMARK    2  A    between atoms: C_2  and  O_13
REMARK    3  A    between atoms: C_3  and  C_4
REMARK    4  A    between atoms: C_8  and  C_9
REMARK    5  A    between atoms: C_10  and  C_12
REMARK    6  A    between atoms: C_10  and  O_13
REMARK    7  A    between atoms: C_11  and  C_12
REMARK                            x       y       z     vdW  Elec       q    Type
REMARK                         _______ _______ _______ _____ _____    ______ ____
ROOT
ATOM      1  C   UNL A   1      66.383  68.494  85.693  0.00  0.00    +0.127 A 
ATOM      2  C   UNL A   1      65.326  68.031  86.513  0.00  0.00    -0.009 A 
ATOM      3  C   UNL A   1      65.042  68.342  87.963  0.00  0.00    +0.048 C 
ATOM      4  C   UNL A   1      64.419  67.088  85.971  0.00  0.00    +0.007 A 
ATOM      5  C   UNL A   1      64.513  66.642  84.662  0.00  0.00    +0.001 A 
ATOM      6  C   UNL A   1      65.525  67.123  83.849  0.00  0.00    +0.007 A 
ATOM      7  C   UNL A   1      66.463  68.042  84.347  0.00  0.00    -0.009 A 
ATOM      8  C   UNL A   1      67.542  68.523  83.409  0.00  0.00    +0.048 C 
ENDROOT
BRANCH   1   9
ATOM      9  O   UNL A   1      67.424  69.345  86.022  0.00  0.00    -0.486 OA
BRANCH   9  10
ATOM     10  C   UNL A   1      68.369  68.884  86.969  0.00  0.00    +0.282 C 
BRANCH  10  12
ATOM     11  C   UNL A   1      69.326  71.121  86.479  0.00  0.00    +0.067 C 
ATOM     12  C   UNL A   1      69.302  69.986  87.507  0.00  0.00    +0.096 C 
BRANCH  12  13
ATOM     13  N   UNL A   1      70.672  69.498  87.715  0.00  0.00    +0.223 N 
ATOM     14  H   UNL A   1      70.925  69.601  88.697  0.00  0.00    +0.200 HD
ATOM     15  H   UNL A   1      71.317  70.040  87.139  0.00  0.00    +0.200 HD
ATOM     16  H   UNL A   1      70.726  68.514  87.451  0.00  0.00    +0.200 HD
ENDBRANCH  12  13
ENDBRANCH  10  12
ENDBRANCH   9  10
ENDBRANCH   1   9
TORSDOF 4
ENDMDL
MODEL 4
REMARK VINA RESULT:      -5.4     15.248     17.552
REMARK  Name = mexiletine.pdb
REMARK  7 active torsions:
REMARK  status: ('A' for Active; 'I' for Inactive)
REMARK    1  A    between atoms: N_1  and  C_12
REMARK    2  A    between atoms: C_2  and  O_13
REMARK    3  A    between atoms: C_3  and  C_4
REMARK    4  A    between atoms: C_8  and  C_9
REMARK    5  A    between atoms: C_10  and  C_12
REMARK    6  A    between atoms: C_10  and  O_13
REMARK    7  A    between atoms: C_11  and  C_12
REMARK                            x       y       z     vdW  Elec       q    Type
REMARK                         _______ _______ _______ _____ _____    ______ ____
ROOT
ATOM      1  C   UNL A   1      66.377  68.472  85.792  0.00  0.00    +0.127 A 
ATOM      2  C   UNL A   1      66.567  68.045  84.455  0.00  0.00    -0.009 A 
ATOM      3  C   UNL A   1      67.642  68.446  83.474  0.00  0.00    +0.048 C 
ATOM      4  C   UNL A   1      65.606  67.176  83.884  0.00  0.00    +0.007 A 
ATOM      5  C   UNL A   1      64.518  66.705  84.604  0.00  0.00    +0.001 A 
ATOM      6  C   UNL A   1      64.353  67.093  85.922  0.00  0.00    +0.007 A 
ATOM      7  C   UNL A   1      65.267  67.972  86.527  0.00  0.00    -0.009 A 
ATOM      8  C   UNL A   1      65.026  68.357  87.965  0.00  0.00    +0.048 C 
ENDROOT
BRANCH   1   9
ATOM      9  O   UNL A   1      67.131  69.369  86.529  0.00  0.00    -0.486 OA
BRANCH   9  10
ATOM     10  C   UNL A   1      68.337  68.896  87.098  0.00  0.00    +0.282 C 
BRANCH  10  12
ATOM     11  C   UNL A   1      69.307  71.081  86.431  0.00  0.00    +0.067 C 
ATOM     12  C   UNL A   1      69.304  70.015  87.531  0.00  0.00    +0.096 C 
BRANCH  12  13
ATOM     13  N   UNL A   1      70.674  69.519  87.722  0.00  0.00    +0.223 N 
ATOM     14  H   UNL A   1      70.723  68.540  87.441  0.00  0.00    +0.200 HD
ATOM     15  H   UNL A   1      70.932  69.604  88.705  0.00  0.00    +0.200 HD
ATOM     16  H   UNL A   1      71.317  70.069  87.153  0.00  0.00    +0.200 HD
ENDBRANCH  12  13
ENDBRANCH  10  12
ENDBRANCH   9  10
ENDBRANCH   1   9
TORSDOF 4
ENDMDL
MODEL 5
REMARK VINA RESULT:      -5.3      7.034      9.203
REMARK  Name = mexiletine.pdb
REMARK  7 active torsions:
REMARK  status: ('A' for Active; 'I' for Inactive)
REMARK    1  A    between atoms: N_1  and  C_12
REMARK    2  A    between atoms: C_2  and  O_13
REMARK    3  A    between atoms: C_3  and  C_4
REMARK    4  A    between atoms: C_8  and  C_9
REMARK    5  A    between atoms: C_10  and  C_12
REMARK    6  A    between atoms: C_10  and  O_13
REMARK    7  A    between atoms: C_11  and  C_12
REMARK                            x       y       z     vdW  Elec       q    Type
REMARK                         _______ _______ _______ _____ _____    ______ ____
ROOT
ATOM      1  C   UNL A   1      76.708  70.500  86.094  0.00  0.00    +0.127 A 
ATOM      2  C   UNL A   1      75.600  69.785  85.577  0.00  0.00    -0.009 A 
ATOM      3  C   UNL A   1      75.000  68.487  86.059  0.00  0.00    +0.048 C 
ATOM      4  C   UNL A   1      74.974  70.272  84.403  0.00  0.00    +0.007 A 
ATOM      5  C   UNL A   1      75.387  71.439  83.777  0.00  0.00    +0.001 A 
ATOM      6  C   UNL A   1      76.446  72.158  84.305  0.00  0.00    +0.007 A 
ATOM      7  C   UNL A   1      77.114  71.704  85.454  0.00  0.00    -0.009 A 
ATOM      8  C   UNL A   1      78.262  72.533  85.973  0.00  0.00    +0.048 C 
ENDROOT
BRANCH   1   9
ATOM      9  O   UNL A   1      77.518  70.181  87.169  0.00  0.00    -0.486 OA
BRANCH   9  10
ATOM     10  C   UNL A   1      78.351  69.044  87.043  0.00  0.00    +0.282 C 
BRANCH  10  12
ATOM     11  C   UNL A   1      80.544  68.044  86.451  0.00  0.00    +0.067 C 
ATOM     12  C   UNL A   1      79.785  69.368  86.582  0.00  0.00    +0.096 C 
BRANCH  12  13
ATOM     13  N   UNL A   1      80.491  70.234  87.536  0.00  0.00    +0.223 N 
ATOM     14  H   UNL A   1      79.834  70.572  88.239  0.00  0.00    +0.200 HD
ATOM     15  H   UNL A   1      80.897  71.028  87.040  0.00  0.00    +0.200 HD
ATOM     16  H   UNL A   1      81.233  69.703  87.992  0.00  0.00    +0.200 HD
ENDBRANCH  12  13
ENDBRANCH  10  12
ENDBRANCH   9  10
ENDBRANCH   1   9
TORSDOF 4
ENDMDL
MODEL 6
REMARK VINA RESULT:      -5.3      8.486      9.587
REMARK  Name = mexiletine.pdb
REMARK  7 active torsions:
REMARK  status: ('A' for Active; 'I' for Inactive)
REMARK    1  A    between atoms: N_1  and  C_12
REMARK    2  A    between atoms: C_2  and  O_13
REMARK    3  A    between atoms: C_3  and  C_4
REMARK    4  A    between atoms: C_8  and  C_9
REMARK    5  A    between atoms: C_10  and  C_12
REMARK    6  A    between atoms: C_10  and  O_13
REMARK    7  A    between atoms: C_11  and  C_12
REMARK                            x       y       z     vdW  Elec       q    Type
REMARK                         _______ _______ _______ _____ _____    ______ ____
ROOT
ATOM      1  C   UNL A   1      75.684  74.421  83.890  0.00  0.00    +0.127 A 
ATOM      2  C   UNL A   1      76.831  73.590  83.865  0.00  0.00    -0.009 A 
ATOM      3  C   UNL A   1      76.984  72.168  84.347  0.00  0.00    +0.048 C 
ATOM      4  C   UNL A   1      78.049  74.141  83.399  0.00  0.00    +0.007 A 
ATOM      5  C   UNL A   1      78.139  75.445  82.935  0.00  0.00    +0.001 A 
ATOM      6  C   UNL A   1      77.009  76.244  82.924  0.00  0.00    +0.007 A 
ATOM      7  C   UNL A   1      75.783  75.751  83.397  0.00  0.00    -0.009 A 
ATOM      8  C   UNL A   1      74.592  76.676  83.361  0.00  0.00    +0.048 C 
ENDROOT
BRANCH   1   9
ATOM      9  O   UNL A   1      74.418  74.133  84.369  0.00  0.00    -0.486 OA
BRANCH   9  10
ATOM     10  C   UNL A   1      73.504  73.525  83.476  0.00  0.00    +0.282 C 
BRANCH  10  12
ATOM     11  C   UNL A   1      73.398  71.916  85.361  0.00  0.00    +0.067 C 
ATOM     12  C   UNL A   1      73.109  72.089  83.867  0.00  0.00    +0.096 C 
BRANCH  12  13
ATOM     13  N   UNL A   1      73.866  71.081  83.112  0.00  0.00    +0.223 N 
ATOM     14  H   UNL A   1      74.685  70.798  83.649  0.00  0.00    +0.200 HD
ATOM     15  H   UNL A   1      74.163  71.477  82.220  0.00  0.00    +0.200 HD
ATOM     16  H   UNL A   1      73.273  70.268  82.943  0.00  0.00    +0.200 HD
ENDBRANCH  12  13
ENDBRANCH  10  12
ENDBRANCH   9  10
ENDBRANCH   1   9
TORSDOF 4
ENDMDL
MODEL 7
REMARK VINA RESULT:      -5.3      8.305      9.293
REMARK  Name = mexiletine.pdb
REMARK  7 active torsions:
REMARK  status: ('A' for Active; 'I' for Inactive)
REMARK    1  A    between atoms: N_1  and  C_12
REMARK    2  A    between atoms: C_2  and  O_13
REMARK    3  A    between atoms: C_3  and  C_4
REMARK    4  A    between atoms: C_8  and  C_9
REMARK    5  A    between atoms: C_10  and  C_12
REMARK    6  A    between atoms: C_10  and  O_13
REMARK    7  A    between atoms: C_11  and  C_12
REMARK                            x       y       z     vdW  Elec       q    Type
REMARK                         _______ _______ _______ _____ _____    ______ ____
ROOT
ATOM      1  C   UNL A   1      75.955  73.665  84.195  0.00  0.00    +0.127 A 
ATOM      2  C   UNL A   1      75.215  74.795  83.768  0.00  0.00    -0.009 A 
ATOM      3  C   UNL A   1      73.728  75.043  83.854  0.00  0.00    +0.048 C 
ATOM      4  C   UNL A   1      75.904  75.835  83.099  0.00  0.00    +0.007 A 
ATOM      5  C   UNL A   1      77.274  75.796  82.888  0.00  0.00    +0.001 A 
ATOM      6  C   UNL A   1      78.002  74.709  83.338  0.00  0.00    +0.007 A 
ATOM      7  C   UNL A   1      77.362  73.641  83.988  0.00  0.00    -0.009 A 
ATOM      8  C   UNL A   1      78.214  72.486  84.449  0.00  0.00    +0.048 C 
ENDROOT
BRANCH   1   9
ATOM      9  O   UNL A   1      75.495  72.504  84.792  0.00  0.00    -0.486 OA
BRANCH   9  10
ATOM     10  C   UNL A   1      74.846  71.557  83.964  0.00  0.00    +0.282 C 
BRANCH  10  12
ATOM     11  C   UNL A   1      75.729  70.022  85.701  0.00  0.00    +0.067 C 
ATOM     12  C   UNL A   1      74.653  70.179  84.624  0.00  0.00    +0.096 C 
BRANCH  12  13
ATOM     13  N   UNL A   1      74.778  69.080  83.657  0.00  0.00    +0.223 N 
ATOM     14  H   UNL A   1      75.415  69.355  82.910  0.00  0.00    +0.200 HD
ATOM     15  H   UNL A   1      73.861  68.868  83.261  0.00  0.00    +0.200 HD
ATOM     16  H   UNL A   1      75.143  68.253  84.128  0.00  0.00    +0.200 HD
ENDBRANCH  12  13
ENDBRANCH  10  12
ENDBRANCH   9  10
ENDBRANCH   1   9
TORSDOF 4
ENDMDL
MODEL 8
REMARK VINA RESULT:      -5.3     20.318     21.721
REMARK  Name = mexiletine.pdb
REMARK  7 active torsions:
REMARK  status: ('A' for Active; 'I' for Inactive)
REMARK    1  A    between atoms: N_1  and  C_12
REMARK    2  A    between atoms: C_2  and  O_13
REMARK    3  A    between atoms: C_3  and  C_4
REMARK    4  A    between atoms: C_8  and  C_9
REMARK    5  A    between atoms: C_10  and  C_12
REMARK    6  A    between atoms: C_10  and  O_13
REMARK    7  A    between atoms: C_11  and  C_12
REMARK                            x       y       z     vdW  Elec       q    Type
REMARK                         _______ _______ _______ _____ _____    ______ ____
ROOT
ATOM      1  C   UNL A   1      64.082  64.025  85.302  0.00  0.00    +0.127 A 
ATOM      2  C   UNL A   1      64.503  62.999  86.183  0.00  0.00    -0.009 A 
ATOM      3  C   UNL A   1      64.193  61.522  86.138  0.00  0.00    +0.048 C 
ATOM      4  C   UNL A   1      65.262  63.361  87.322  0.00  0.00    +0.007 A 
ATOM      5  C   UNL A   1      65.634  64.673  87.574  0.00  0.00    +0.001 A 
ATOM      6  C   UNL A   1      65.255  65.671  86.692  0.00  0.00    +0.007 A 
ATOM      7  C   UNL A   1      64.482  65.365  85.560  0.00  0.00    -0.009 A 
ATOM      8  C   UNL A   1      64.100  66.499  84.642  0.00  0.00    +0.048 C 
ENDROOT
BRANCH   1   9
ATOM      9  O   UNL A   1      63.277  63.925  84.181  0.00  0.00    -0.486 OA
BRANCH   9  10
ATOM     10  C   UNL A   1      63.710  63.069  83.140  0.00  0.00    +0.282 C 
BRANCH  10  12
ATOM     11  C   UNL A   1      64.169  64.771  81.394  0.00  0.00    +0.067 C 
ATOM     12  C   UNL A   1      64.811  63.675  82.249  0.00  0.00    +0.096 C 
BRANCH  12  13
ATOM     13  N   UNL A   1      65.421  62.672  81.365  0.00  0.00    +0.223 N 
ATOM     14  H   UNL A   1      65.553  61.801  81.879  0.00  0.00    +0.200 HD
ATOM     15  H   UNL A   1      66.325  63.014  81.037  0.00  0.00    +0.200 HD
ATOM     16  H   UNL A   1      64.809  62.506  80.567  0.00  0.00    +0.200 HD
ENDBRANCH  12  13
ENDBRANCH  10  12
ENDBRANCH   9  10
ENDBRANCH   1   9
TORSDOF 4
ENDMDL
MODEL 9
REMARK VINA RESULT:      -5.3      2.840      4.017
REMARK  Name = mexiletine.pdb
REMARK  7 active torsions:
REMARK  status: ('A' for Active; 'I' for Inactive)
REMARK    1  A    between atoms: N_1  and  C_12
REMARK    2  A    between atoms: C_2  and  O_13
REMARK    3  A    between atoms: C_3  and  C_4
REMARK    4  A    between atoms: C_8  and  C_9
REMARK    5  A    between atoms: C_10  and  C_12
REMARK    6  A    between atoms: C_10  and  O_13
REMARK    7  A    between atoms: C_11  and  C_12
REMARK                            x       y       z     vdW  Elec       q    Type
REMARK                         _______ _______ _______ _____ _____    ______ ____
ROOT
ATOM      1  C   UNL A   1      80.728  77.875  90.477  0.00  0.00    +0.127 A 
ATOM      2  C   UNL A   1      81.366  77.516  89.265  0.00  0.00    -0.009 A 
ATOM      3  C   UNL A   1      80.754  77.270  87.907  0.00  0.00    +0.048 C 
ATOM      4  C   UNL A   1      82.760  77.271  89.286  0.00  0.00    +0.007 A 
ATOM      5  C   UNL A   1      83.516  77.411  90.440  0.00  0.00    +0.001 A 
ATOM      6  C   UNL A   1      82.899  77.799  91.617  0.00  0.00    +0.007 A 
ATOM      7  C   UNL A   1      81.514  78.032  91.652  0.00  0.00    -0.009 A 
ATOM      8  C   UNL A   1      80.905  78.448  92.967  0.00  0.00    +0.048 C 
ENDROOT
BRANCH   1   9
ATOM      9  O   UNL A   1      79.381  78.085  90.717  0.00  0.00    -0.486 OA
BRANCH   9  10
ATOM     10  C   UNL A   1      78.482  77.065  90.326  0.00  0.00    +0.282 C 
BRANCH  10  12
ATOM     11  C   UNL A   1      77.186  78.587  88.855  0.00  0.00    +0.067 C 
ATOM     12  C   UNL A   1      77.065  77.574  89.997  0.00  0.00    +0.096 C 
BRANCH  12  13
ATOM     13  N   UNL A   1      76.429  78.224  91.151  0.00  0.00    +0.223 N 
ATOM     14  H   UNL A   1      77.149  78.569  91.786  0.00  0.00    +0.200 HD
ATOM     15  H   UNL A   1      75.839  77.550  91.639  0.00  0.00    +0.200 HD
ATOM     16  H   UNL A   1      75.858  79.005  90.828  0.00  0.00    +0.200 HD
ENDBRANCH  12  13
ENDBRANCH  10  12
ENDBRANCH   9  10
ENDBRANCH   1   9
TORSDOF 4
ENDMDL
MODEL 10
REMARK VINA RESULT:      -5.2      8.303      9.332
REMARK  Name = mexiletine.pdb
REMARK  7 active torsions:
REMARK  status: ('A' for Active; 'I' for Inactive)
REMARK    1  A    between atoms: N_1  and  C_12
REMARK    2  A    between atoms: C_2  and  O_13
REMARK    3  A    between atoms: C_3  and  C_4
REMARK    4  A    between atoms: C_8  and  C_9
REMARK    5  A    between atoms: C_10  and  C_12
REMARK    6  A    between atoms: C_10  and  O_13
REMARK    7  A    between atoms: C_11  and  C_12
REMARK                            x       y       z     vdW  Elec       q    Type
REMARK                         _______ _______ _______ _____ _____    ______ ____
ROOT
ATOM      1  C   UNL A   1      75.922  74.135  84.003  0.00  0.00    +0.127 A 
ATOM      2  C   UNL A   1      75.506  75.414  83.559  0.00  0.00    -0.009 A 
ATOM      3  C   UNL A   1      74.125  76.023  83.581  0.00  0.00    +0.048 C 
ATOM      4  C   UNL A   1      76.461  76.252  82.934  0.00  0.00    +0.007 A 
ATOM      5  C   UNL A   1      77.787  75.876  82.784  0.00  0.00    +0.001 A 
ATOM      6  C   UNL A   1      78.202  74.641  83.252  0.00  0.00    +0.007 A 
ATOM      7  C   UNL A   1      77.288  73.764  83.858  0.00  0.00    -0.009 A 
ATOM      8  C   UNL A   1      77.805  72.433  84.342  0.00  0.00    +0.048 C 
ENDROOT
BRANCH   1   9
ATOM      9  O   UNL A   1      75.162  73.124  84.564  0.00  0.00    -0.486 OA
BRANCH   9  10
ATOM     10  C   UNL A   1      74.201  72.495  83.736  0.00  0.00    +0.282 C 
BRANCH  10  12
ATOM     11  C   UNL A   1      73.567  71.001  85.614  0.00  0.00    +0.067 C 
ATOM     12  C   UNL A   1      73.908  71.032  84.121  0.00  0.00    +0.096 C 
BRANCH  12  13
ATOM     13  N   UNL A   1      75.059  70.153  83.873  0.00  0.00    +0.223 N 
ATOM     14  H   UNL A   1      75.077  69.411  84.573  0.00  0.00    +0.200 HD
ATOM     15  H   UNL A   1      75.920  70.697  83.931  0.00  0.00    +0.200 HD
ATOM     16  H   UNL A   1      74.978  69.742  82.944  0.00  0.00    +0.200 HD
ENDBRANCH  12  13
ENDBRANCH  10  12
ENDBRANCH   9  10
ENDBRANCH   1   9
TORSDOF 4
ENDMDL
MODEL 11
REMARK VINA RESULT:      -5.2      8.130      9.514
REMARK  Name = mexiletine.pdb
REMARK  7 active torsions:
REMARK  status: ('A' for Active; 'I' for Inactive)
REMARK    1  A    between atoms: N_1  and  C_12
REMARK    2  A    between atoms: C_2  and  O_13
REMARK    3  A    between atoms: C_3  and  C_4
REMARK    4  A    between atoms: C_8  and  C_9
REMARK    5  A    between atoms: C_10  and  C_12
REMARK    6  A    between atoms: C_10  and  O_13
REMARK    7  A    between atoms: C_11  and  C_12
REMARK                            x       y       z     vdW  Elec       q    Type
REMARK                         _______ _______ _______ _____ _____    ______ ____
ROOT
ATOM      1  C   UNL A   1      80.433  68.602  86.194  0.00  0.00    +0.127 A 
ATOM      2  C   UNL A   1      79.186  68.866  86.813  0.00  0.00    -0.009 A 
ATOM      3  C   UNL A   1      78.329  67.948  87.651  0.00  0.00    +0.048 C 
ATOM      4  C   UNL A   1      78.579  70.126  86.591  0.00  0.00    +0.007 A 
ATOM      5  C   UNL A   1      79.184  71.111  85.825  0.00  0.00    +0.001 A 
ATOM      6  C   UNL A   1      80.420  70.866  85.251  0.00  0.00    +0.007 A 
ATOM      7  C   UNL A   1      81.052  69.624  85.424  0.00  0.00    -0.009 A 
ATOM      8  C   UNL A   1      82.395  69.422  84.768  0.00  0.00    +0.048 C 
ENDROOT
BRANCH   1   9
ATOM      9  O   UNL A   1      81.171  67.431  86.201  0.00  0.00    -0.486 OA
BRANCH   9  10
ATOM     10  C   UNL A   1      81.987  67.181  87.330  0.00  0.00    +0.282 C 
BRANCH  10  12
ATOM     11  C   UNL A   1      83.615  66.238  85.712  0.00  0.00    +0.067 C 
ATOM     12  C   UNL A   1      83.026  66.064  87.114  0.00  0.00    +0.096 C 
BRANCH  12  13
ATOM     13  N   UNL A   1      82.429  64.725  87.221  0.00  0.00    +0.223 N 
ATOM     14  H   UNL A   1      82.144  64.555  88.185  0.00  0.00    +0.200 HD
ATOM     15  H   UNL A   1      83.115  64.024  86.940  0.00  0.00    +0.200 HD
ATOM     16  H   UNL A   1      81.614  64.667  86.610  0.00  0.00    +0.200 HD
ENDBRANCH  12  13
ENDBRANCH  10  12
ENDBRANCH   9  10
ENDBRANCH   1   9
TORSDOF 4
ENDMDL
MODEL 12
REMARK VINA RESULT:      -5.2      7.418      9.161
REMARK  Name = mexiletine.pdb
REMARK  7 active torsions:
REMARK  status: ('A' for Active; 'I' for Inactive)
REMARK    1  A    between atoms: N_1  and  C_12
REMARK    2  A    between atoms: C_2  and  O_13
REMARK    3  A    between atoms: C_3  and  C_4
REMARK    4  A    between atoms: C_8  and  C_9
REMARK    5  A    between atoms: C_10  and  C_12
REMARK    6  A    between atoms: C_10  and  O_13
REMARK    7  A    between atoms: C_11  and  C_12
REMARK                            x       y       z     vdW  Elec       q    Type
REMARK                         _______ _______ _______ _____ _____    ______ ____
ROOT
ATOM      1  C   UNL A   1      77.002  70.503  86.079  0.00  0.00    +0.127 A 
ATOM      2  C   UNL A   1      76.013  71.175  85.320  0.00  0.00    -0.009 A 
ATOM      3  C   UNL A   1      75.999  72.603  84.830  0.00  0.00    +0.048 C 
ATOM      4  C   UNL A   1      74.817  70.482  85.011  0.00  0.00    +0.007 A 
ATOM      5  C   UNL A   1      74.609  69.165  85.391  0.00  0.00    +0.001 A 
ATOM      6  C   UNL A   1      75.592  68.496  86.101  0.00  0.00    +0.007 A 
ATOM      7  C   UNL A   1      76.785  69.148  86.452  0.00  0.00    -0.009 A 
ATOM      8  C   UNL A   1      77.812  68.363  87.229  0.00  0.00    +0.048 C 
ENDROOT
BRANCH   1   9
ATOM      9  O   UNL A   1      78.201  70.994  86.564  0.00  0.00    -0.486 OA
BRANCH   9  10
ATOM     10  C   UNL A   1      79.248  71.196  85.633  0.00  0.00    +0.282 C 
BRANCH  10  12
ATOM     11  C   UNL A   1      81.059  69.519  85.383  0.00  0.00    +0.067 C 
ATOM     12  C   UNL A   1      80.636  70.774  86.152  0.00  0.00    +0.096 C 
BRANCH  12  13
ATOM     13  N   UNL A   1      80.621  70.473  87.590  0.00  0.00    +0.223 N 
ATOM     14  H   UNL A   1      79.867  69.818  87.793  0.00  0.00    +0.200 HD
ATOM     15  H   UNL A   1      80.474  71.335  88.116  0.00  0.00    +0.200 HD
ATOM     16  H   UNL A   1      81.513  70.059  87.859  0.00  0.00    +0.200 HD
ENDBRANCH  12  13
ENDBRANCH  10  12
ENDBRANCH   9  10
ENDBRANCH   1   9
TORSDOF 4
ENDMDL
MODEL 13
REMARK VINA RESULT:      -5.2     20.169     21.616
REMARK  Name = mexiletine.pdb
REMARK  7 active torsions:
REMARK  status: ('A' for Active; 'I' for Inactive)
REMARK    1  A    between atoms: N_1  and  C_12
REMARK    2  A    between atoms: C_2  and  O_13
REMARK    3  A    between atoms: C_3  and  C_4
REMARK    4  A    between atoms: C_8  and  C_9
REMARK    5  A    between atoms: C_10  and  C_12
REMARK    6  A    between atoms: C_10  and  O_13
REMARK    7  A    between atoms: C_11  and  C_12
REMARK                            x       y       z     vdW  Elec       q    Type
REMARK                         _______ _______ _______ _____ _____    ______ ____
ROOT
ATOM      1  C   UNL A   1      64.229  64.739  85.052  0.00  0.00    +0.127 A 
ATOM      2  C   UNL A   1      64.605  65.913  85.749  0.00  0.00    -0.009 A 
ATOM      3  C   UNL A   1      64.492  67.354  85.313  0.00  0.00    +0.048 C 
ATOM      4  C   UNL A   1      65.244  65.773  87.005  0.00  0.00    +0.007 A 
ATOM      5  C   UNL A   1      65.474  64.533  87.582  0.00  0.00    +0.001 A 
ATOM      6  C   UNL A   1      65.072  63.387  86.916  0.00  0.00    +0.007 A 
ATOM      7  C   UNL A   1      64.455  63.473  85.658  0.00  0.00    -0.009 A 
ATOM      8  C   UNL A   1      64.046  62.186  84.986  0.00  0.00    +0.048 C 
ENDROOT
BRANCH   1   9
ATOM      9  O   UNL A   1      63.670  64.624  83.791  0.00  0.00    -0.486 OA
BRANCH   9  10
ATOM     10  C   UNL A   1      64.497  64.915  82.681  0.00  0.00    +0.282 C 
BRANCH  10  12
ATOM     11  C   UNL A   1      62.904  63.393  81.539  0.00  0.00    +0.067 C 
ATOM     12  C   UNL A   1      64.339  63.929  81.508  0.00  0.00    +0.096 C 
BRANCH  12  13
ATOM     13  N   UNL A   1      65.275  62.800  81.604  0.00  0.00    +0.223 N 
ATOM     14  H   UNL A   1      65.310  62.311  80.711  0.00  0.00    +0.200 HD
ATOM     15  H   UNL A   1      64.959  62.158  82.332  0.00  0.00    +0.200 HD
ATOM     16  H   UNL A   1      66.204  63.149  81.838  0.00  0.00    +0.200 HD
ENDBRANCH  12  13
ENDBRANCH  10  12
ENDBRANCH   9  10
ENDBRANCH   1   9
TORSDOF 4
ENDMDL
MODEL 14
REMARK VINA RESULT:      -5.2     16.487     18.759
REMARK  Name = mexiletine.pdb
REMARK  7 active torsions:
REMARK  status: ('A' for Active; 'I' for Inactive)
REMARK    1  A    between atoms: N_1  and  C_12
REMARK    2  A    between atoms: C_2  and  O_13
REMARK    3  A    between atoms: C_3  and  C_4
REMARK    4  A    between atoms: C_8  and  C_9
REMARK    5  A    between atoms: C_10  and  C_12
REMARK    6  A    between atoms: C_10  and  O_13
REMARK    7  A    between atoms: C_11  and  C_12
REMARK                            x       y       z     vdW  Elec       q    Type
REMARK                         _______ _______ _______ _____ _____    ______ ____
ROOT
ATOM      1  C   UNL A   1      65.854  66.787  85.772  0.00  0.00    +0.127 A 
ATOM      2  C   UNL A   1      65.715  67.209  84.427  0.00  0.00    -0.009 A 
ATOM      3  C   UNL A   1      66.178  68.492  83.782  0.00  0.00    +0.048 C 
ATOM      4  C   UNL A   1      64.988  66.382  83.536  0.00  0.00    +0.007 A 
ATOM      5  C   UNL A   1      64.449  65.167  83.930  0.00  0.00    +0.001 A 
ATOM      6  C   UNL A   1      64.618  64.738  85.236  0.00  0.00    +0.007 A 
ATOM      7  C   UNL A   1      65.311  65.532  86.163  0.00  0.00    -0.009 A 
ATOM      8  C   UNL A   1      65.454  65.008  87.570  0.00  0.00    +0.048 C 
ENDROOT
BRANCH   1   9
ATOM      9  O   UNL A   1      66.446  67.454  86.831  0.00  0.00    -0.486 OA
BRANCH   9  10
ATOM     10  C   UNL A   1      67.832  67.722  86.740  0.00  0.00    +0.282 C 
BRANCH  10  12
ATOM     11  C   UNL A   1      67.825  70.188  86.460  0.00  0.00    +0.067 C 
ATOM     12  C   UNL A   1      68.255  69.052  87.393  0.00  0.00    +0.096 C 
BRANCH  12  13
ATOM     13  N   UNL A   1      69.708  69.128  87.603  0.00  0.00    +0.223 N 
ATOM     14  H   UNL A   1      70.189  68.736  86.794  0.00  0.00    +0.200 HD
ATOM     15  H   UNL A   1      69.958  68.599  88.438  0.00  0.00    +0.200 HD
ATOM     16  H   UNL A   1      69.983  70.103  87.723  0.00  0.00    +0.200 HD
ENDBRANCH  12  13
ENDBRANCH  10  12
ENDBRANCH   9  10
ENDBRANCH   1   9
TORSDOF 4
ENDMDL
MODEL 15
REMARK VINA RESULT:      -5.2      8.660      9.802
REMARK  Name = mexiletine.pdb
REMARK  7 active torsions:
REMARK  status: ('A' for Active; 'I' for Inactive)
REMARK    1  A    between atoms: N_1  and  C_12
REMARK    2  A    between atoms: C_2  and  O_13
REMARK    3  A    between atoms: C_3  and  C_4
REMARK    4  A    between atoms: C_8  and  C_9
REMARK    5  A    between atoms: C_10  and  C_12
REMARK    6  A    between atoms: C_10  and  O_13
REMARK    7  A    between atoms: C_11  and  C_12
REMARK                            x       y       z     vdW  Elec       q    Type
REMARK                         _______ _______ _______ _____ _____    ______ ____
ROOT
ATOM      1  C   UNL A   1      75.698  74.445  83.912  0.00  0.00    +0.127 A 
ATOM      2  C   UNL A   1      75.768  75.791  83.476  0.00  0.00    -0.009 A 
ATOM      3  C   UNL A   1      74.674  76.830  83.421  0.00  0.00    +0.048 C 
ATOM      4  C   UNL A   1      76.993  76.261  82.941  0.00  0.00    +0.007 A 
ATOM      5  C   UNL A   1      78.123  75.460  82.871  0.00  0.00    +0.001 A 
ATOM      6  C   UNL A   1      78.064  74.156  83.331  0.00  0.00    +0.007 A 
ATOM      7  C   UNL A   1      76.866  73.636  83.850  0.00  0.00    -0.009 A 
ATOM      8  C   UNL A   1      76.870  72.207  84.330  0.00  0.00    +0.048 C 
ENDROOT
BRANCH   1   9
ATOM      9  O   UNL A   1      74.603  73.748  84.391  0.00  0.00    -0.486 OA
BRANCH   9  10
ATOM     10  C   UNL A   1      73.623  73.346  83.453  0.00  0.00    +0.282 C 
BRANCH  10  12
ATOM     11  C   UNL A   1      71.207  72.916  83.816  0.00  0.00    +0.067 C 
ATOM     12  C   UNL A   1      72.253  74.022  83.652  0.00  0.00    +0.096 C 
BRANCH  12  13
ATOM     13  N   UNL A   1      71.883  74.868  82.509  0.00  0.00    +0.223 N 
ATOM     14  H   UNL A   1      72.593  74.787  81.781  0.00  0.00    +0.200 HD
ATOM     15  H   UNL A   1      71.816  75.839  82.812  0.00  0.00    +0.200 HD
ATOM     16  H   UNL A   1      70.982  74.564  82.140  0.00  0.00    +0.200 HD
ENDBRANCH  12  13
ENDBRANCH  10  12
ENDBRANCH   9  10
ENDBRANCH   1   9
TORSDOF 4
ENDMDL
MODEL 16
REMARK VINA RESULT:      -5.2      2.413      5.116
REMARK  Name = mexiletine.pdb
REMARK  7 active torsions:
REMARK  status: ('A' for Active; 'I' for Inactive)
REMARK    1  A    between atoms: N_1  and  C_12
REMARK    2  A    between atoms: C_2  and  O_13
REMARK    3  A    between atoms: C_3  and  C_4
REMARK    4  A    between atoms: C_8  and  C_9
REMARK    5  A    between atoms: C_10  and  C_12
REMARK    6  A    between atoms: C_10  and  O_13
REMARK    7  A    between atoms: C_11  and  C_12
REMARK                            x       y       z     vdW  Elec       q    Type
REMARK                         _______ _______ _______ _____ _____    ______ ____
ROOT
ATOM      1  C   UNL A   1      79.980  77.061  88.099  0.00  0.00    +0.127 A 
ATOM      2  C   UNL A   1      80.454  76.014  87.271  0.00  0.00    -0.009 A 
ATOM      3  C   UNL A   1      81.832  75.400  87.213  0.00  0.00    +0.048 C 
ATOM      4  C   UNL A   1      79.579  75.481  86.294  0.00  0.00    +0.007 A 
ATOM      5  C   UNL A   1      78.272  75.923  86.155  0.00  0.00    +0.001 A 
ATOM      6  C   UNL A   1      77.797  76.919  86.990  0.00  0.00    +0.007 A 
ATOM      7  C   UNL A   1      78.633  77.497  87.959  0.00  0.00    -0.009 A 
ATOM      8  C   UNL A   1      78.054  78.581  88.833  0.00  0.00    +0.048 C 
ENDROOT
BRANCH   1   9
ATOM      9  O   UNL A   1      80.667  77.784  89.059  0.00  0.00    -0.486 OA
BRANCH   9  10
ATOM     10  C   UNL A   1      81.008  77.116  90.259  0.00  0.00    +0.282 C 
BRANCH  10  12
ATOM     11  C   UNL A   1      83.457  77.211  90.646  0.00  0.00    +0.067 C 
ATOM     12  C   UNL A   1      82.115  77.815  91.070  0.00  0.00    +0.096 C 
BRANCH  12  13
ATOM     13  N   UNL A   1      81.942  77.631  92.517  0.00  0.00    +0.223 N 
ATOM     14  H   UNL A   1      82.430  78.374  93.016  0.00  0.00    +0.200 HD
ATOM     15  H   UNL A   1      82.326  76.726  92.793  0.00  0.00    +0.200 HD
ATOM     16  H   UNL A   1      80.949  77.663  92.747  0.00  0.00    +0.200 HD
ENDBRANCH  12  13
ENDBRANCH  10  12
ENDBRANCH   9  10
ENDBRANCH   1   9
TORSDOF 4
ENDMDL
MODEL 17
REMARK VINA RESULT:      -5.2      2.368      4.834
REMARK  Name = mexiletine.pdb
REMARK  7 active torsions:
REMARK  status: ('A' for Active; 'I' for Inactive)
REMARK    1  A    between atoms: N_1  and  C_12
REMARK    2  A    between atoms: C_2  and  O_13
REMARK    3  A    between atoms: C_3  and  C_4
REMARK    4  A    between atoms: C_8  and  C_9
REMARK    5  A    between atoms: C_10  and  C_12
REMARK    6  A    between atoms: C_10  and  O_13
REMARK    7  A    between atoms: C_11  and  C_12
REMARK                            x       y       z     vdW  Elec       q    Type
REMARK                         _______ _______ _______ _____ _____    ______ ____
ROOT
ATOM      1  C   UNL A   1      80.097  77.025  87.991  0.00  0.00    +0.127 A 
ATOM      2  C   UNL A   1      78.786  77.560  87.952  0.00  0.00    -0.009 A 
ATOM      3  C   UNL A   1      78.194  78.682  88.771  0.00  0.00    +0.048 C 
ATOM      4  C   UNL A   1      77.837  76.951  87.096  0.00  0.00    +0.007 A 
ATOM      5  C   UNL A   1      78.163  75.882  86.275  0.00  0.00    +0.001 A 
ATOM      6  C   UNL A   1      79.454  75.384  86.285  0.00  0.00    +0.007 A 
ATOM      7  C   UNL A   1      80.426  75.939  87.133  0.00  0.00    -0.009 A 
ATOM      8  C   UNL A   1      81.812  75.345  87.098  0.00  0.00    +0.048 C 
ENDROOT
BRANCH   1   9
ATOM      9  O   UNL A   1      81.160  77.396  88.795  0.00  0.00    -0.486 OA
BRANCH   9  10
ATOM     10  C   UNL A   1      81.070  77.097  90.176  0.00  0.00    +0.282 C 
BRANCH  10  12
ATOM     11  C   UNL A   1      83.497  77.287  90.655  0.00  0.00    +0.067 C 
ATOM     12  C   UNL A   1      82.116  77.824  91.042  0.00  0.00    +0.096 C 
BRANCH  12  13
ATOM     13  N   UNL A   1      81.898  77.598  92.478  0.00  0.00    +0.223 N 
ATOM     14  H   UNL A   1      82.784  77.355  92.922  0.00  0.00    +0.200 HD
ATOM     15  H   UNL A   1      81.233  76.835  92.605  0.00  0.00    +0.200 HD
ATOM     16  H   UNL A   1      81.527  78.447  92.903  0.00  0.00    +0.200 HD
ENDBRANCH  12  13
ENDBRANCH  10  12
ENDBRANCH   9  10
ENDBRANCH   1   9
TORSDOF 4
ENDMDL
MODEL 18
REMARK VINA RESULT:      -5.1      8.007      9.643
REMARK  Name = mexiletine.pdb
REMARK  7 active torsions:
REMARK  status: ('A' for Active; 'I' for Inactive)
REMARK    1  A    between atoms: N_1  and  C_12
REMARK    2  A    between atoms: C_2  and  O_13
REMARK    3  A    between atoms: C_3  and  C_4
REMARK    4  A    between atoms: C_8  and  C_9
REMARK    5  A    between atoms: C_10  and  C_12
REMARK    6  A    between atoms: C_10  and  O_13
REMARK    7  A    between atoms: C_11  and  C_12
REMARK                            x       y       z     vdW  Elec       q    Type
REMARK                         _______ _______ _______ _____ _____    ______ ____
ROOT
ATOM      1  C   UNL A   1      80.339  68.700  86.153  0.00  0.00    +0.127 A 
ATOM      2  C   UNL A   1      80.977  69.701  85.381  0.00  0.00    -0.009 A 
ATOM      3  C   UNL A   1      82.304  69.645  84.662  0.00  0.00    +0.048 C 
ATOM      4  C   UNL A   1      80.366  70.976  85.297  0.00  0.00    +0.007 A 
ATOM      5  C   UNL A   1      79.154  71.255  85.909  0.00  0.00    +0.001 A 
ATOM      6  C   UNL A   1      78.511  70.264  86.632  0.00  0.00    +0.007 A 
ATOM      7  C   UNL A   1      79.088  68.990  86.764  0.00  0.00    -0.009 A 
ATOM      8  C   UNL A   1      78.338  67.959  87.569  0.00  0.00    +0.048 C 
ENDROOT
BRANCH   1   9
ATOM      9  O   UNL A   1      80.778  67.420  86.443  0.00  0.00    -0.486 OA
BRANCH   9  10
ATOM     10  C   UNL A   1      81.879  67.291  87.322  0.00  0.00    +0.282 C 
BRANCH  10  12
ATOM     11  C   UNL A   1      83.074  66.295  85.389  0.00  0.00    +0.067 C 
ATOM     12  C   UNL A   1      82.887  66.203  86.906  0.00  0.00    +0.096 C 
BRANCH  12  13
ATOM     13  N   UNL A   1      82.419  64.854  87.251  0.00  0.00    +0.223 N 
ATOM     14  H   UNL A   1      82.723  64.195  86.535  0.00  0.00    +0.200 HD
ATOM     15  H   UNL A   1      81.400  64.851  87.306  0.00  0.00    +0.200 HD
ATOM     16  H   UNL A   1      82.808  64.579  88.153  0.00  0.00    +0.200 HD
ENDBRANCH  12  13
ENDBRANCH  10  12
ENDBRANCH   9  10
ENDBRANCH   1   9
TORSDOF 4
ENDMDL
MODEL 19
REMARK VINA RESULT:      -5.1      2.812      3.955
REMARK  Name = mexiletine.pdb
REMARK  7 active torsions:
REMARK  status: ('A' for Active; 'I' for Inactive)
REMARK    1  A    between atoms: N_1  and  C_12
REMARK    2  A    between atoms: C_2  and  O_13
REMARK    3  A    between atoms: C_3  and  C_4
REMARK    4  A    between atoms: C_8  and  C_9
REMARK    5  A    between atoms: C_10  and  C_12
REMARK    6  A    between atoms: C_10  and  O_13
REMARK    7  A    between atoms: C_11  and  C_12
REMARK                            x       y       z     vdW  Elec       q    Type
REMARK                         _______ _______ _______ _____ _____    ______ ____
ROOT
ATOM      1  C   UNL A   1      80.420  77.113  90.359  0.00  0.00    +0.127 A 
ATOM      2  C   UNL A   1      80.681  77.449  91.710  0.00  0.00    -0.009 A 
ATOM      3  C   UNL A   1      79.720  77.527  92.871  0.00  0.00    +0.048 C 
ATOM      4  C   UNL A   1      81.995  77.843  92.063  0.00  0.00    +0.007 A 
ATOM      5  C   UNL A   1      83.030  77.870  91.140  0.00  0.00    +0.001 A 
ATOM      6  C   UNL A   1      82.783  77.506  89.828  0.00  0.00    +0.007 A 
ATOM      7  C   UNL A   1      81.491  77.129  89.423  0.00  0.00    -0.009 A 
ATOM      8  C   UNL A   1      81.290  76.747  87.978  0.00  0.00    +0.048 C 
ENDROOT
BRANCH   1   9
ATOM      9  O   UNL A   1      79.215  76.778  89.768  0.00  0.00    -0.486 OA
BRANCH   9  10
ATOM     10  C   UNL A   1      78.319  77.832  89.469  0.00  0.00    +0.282 C 
BRANCH  10  12
ATOM     11  C   UNL A   1      75.940  78.210  88.873  0.00  0.00    +0.067 C 
ATOM     12  C   UNL A   1      76.867  77.561  89.905  0.00  0.00    +0.096 C 
BRANCH  12  13
ATOM     13  N   UNL A   1      76.574  78.121  91.232  0.00  0.00    +0.223 N 
ATOM     14  H   UNL A   1      76.471  79.133  91.159  0.00  0.00    +0.200 HD
ATOM     15  H   UNL A   1      77.341  77.903  91.870  0.00  0.00    +0.200 HD
ATOM     16  H   UNL A   1      75.709  77.716  91.589  0.00  0.00    +0.200 HD
ENDBRANCH  12  13
ENDBRANCH  10  12
ENDBRANCH   9  10
ENDBRANCH   1   9
TORSDOF 4
ENDMDL
MODEL 20
REMARK VINA RESULT:      -5.1      3.100      4.819
REMARK  Name = mexiletine.pdb
REMARK  7 active torsions:
REMARK  status: ('A' for Active; 'I' for Inactive)
REMARK    1  A    between atoms: N_1  and  C_12
REMARK    2  A    between atoms: C_2  and  O_13
REMARK    3  A    between atoms: C_3  and  C_4
REMARK    4  A    between atoms: C_8  and  C_9
REMARK    5  A    between atoms: C_10  and  C_12
REMARK    6  A    between atoms: C_10  and  O_13
REMARK    7  A    between atoms: C_11  and  C_12
REMARK                            x       y       z     vdW  Elec       q    Type
REMARK                         _______ _______ _______ _____ _____    ______ ____
ROOT
ATOM      1  C   UNL A   1      79.784  77.142  88.289  0.00  0.00    +0.127 A 
ATOM      2  C   UNL A   1      79.335  76.209  87.323  0.00  0.00    -0.009 A 
ATOM      3  C   UNL A   1      77.926  75.913  86.871  0.00  0.00    +0.048 C 
ATOM      4  C   UNL A   1      80.292  75.358  86.717  0.00  0.00    +0.007 A 
ATOM      5  C   UNL A   1      81.644  75.442  87.010  0.00  0.00    +0.001 A 
ATOM      6  C   UNL A   1      82.087  76.380  87.927  0.00  0.00    +0.007 A 
ATOM      7  C   UNL A   1      81.175  77.231  88.573  0.00  0.00    -0.009 A 
ATOM      8  C   UNL A   1      81.723  78.227  89.563  0.00  0.00    +0.048 C 
ENDROOT
BRANCH   1   9
ATOM      9  O   UNL A   1      79.036  78.013  89.063  0.00  0.00    -0.486 OA
BRANCH   9  10
ATOM     10  C   UNL A   1      78.248  77.454  90.098  0.00  0.00    +0.282 C 
BRANCH  10  12
ATOM     11  C   UNL A   1      76.610  78.978  89.025  0.00  0.00    +0.067 C 
ATOM     12  C   UNL A   1      76.752  77.810  90.005  0.00  0.00    +0.096 C 
BRANCH  12  13
ATOM     13  N   UNL A   1      76.196  78.205  91.307  0.00  0.00    +0.223 N 
ATOM     14  H   UNL A   1      76.457  77.515  92.011  0.00  0.00    +0.200 HD
ATOM     15  H   UNL A   1      75.179  78.255  91.240  0.00  0.00    +0.200 HD
ATOM     16  H   UNL A   1      76.565  79.118  91.571  0.00  0.00    +0.200 HD
ENDBRANCH  12  13
ENDBRANCH  10  12
ENDBRANCH   9  10
ENDBRANCH   1   9
TORSDOF 4
ENDMDL
