MODEL 1
REMARK VINA RESULT:      -5.2      0.000      0.000
REMARK  Name = mexiletine.pdb
REMARK  7 active torsions:
REMARK  status: ('A' for Active; 'I' for Inactive)
REMARK    1  A    between atoms: N_1  and  C_12
REMARK    2  A    between atoms: C_2  and  O_13
REMARK    3  A    between atoms: C_3  and  C_4
REMARK    4  A    between atoms: C_8  and  C_9
REMARK    5  A    between atoms: C_10  and  C_12
REMARK    6  A    between atoms: C_10  and  O_13
REMARK    7  A    between atoms: C_11  and  C_12
REMARK                            x       y       z     vdW  Elec       q    Type
REMARK                         _______ _______ _______ _____ _____    ______ ____
ROOT
ATOM      1  C   UNL A   1      23.902  79.342  94.352  0.00  0.00    +0.127 A 
ATOM      2  C   UNL A   1      24.050  78.007  94.800  0.00  0.00    -0.009 A 
ATOM      3  C   UNL A   1      25.068  76.973  94.383  0.00  0.00    +0.048 C 
ATOM      4  C   UNL A   1      23.096  77.496  95.713  0.00  0.00    +0.007 A 
ATOM      5  C   UNL A   1      22.057  78.271  96.206  0.00  0.00    +0.001 A 
ATOM      6  C   UNL A   1      21.935  79.587  95.796  0.00  0.00    +0.007 A 
ATOM      7  C   UNL A   1      22.842  80.134  94.874  0.00  0.00    -0.009 A 
ATOM      8  C   UNL A   1      22.650  81.573  94.467  0.00  0.00    +0.048 C 
ENDROOT
BRANCH   1   9
ATOM      9  O   UNL A   1      24.654  80.028  93.414  0.00  0.00    -0.486 OA
BRANCH   9  10
ATOM     10  C   UNL A   1      24.682  79.513  92.096  0.00  0.00    +0.282 C 
BRANCH  10  12
ATOM     11  C   UNL A   1      22.390  79.409  91.151  0.00  0.00    +0.067 C 
ATOM     12  C   UNL A   1      23.698  80.205  91.134  0.00  0.00    +0.096 C 
BRANCH  12  13
ATOM     13  N   UNL A   1      24.211  80.254  89.758  0.00  0.00    +0.223 N 
ATOM     14  H   UNL A   1      23.756  81.014  89.252  0.00  0.00    +0.200 HD
ATOM     15  H   UNL A   1      24.016  79.369  89.290  0.00  0.00    +0.200 HD
ATOM     16  H   UNL A   1      25.218  80.414  89.777  0.00  0.00    +0.200 HD
ENDBRANCH  12  13
ENDBRANCH  10  12
ENDBRANCH   9  10
ENDBRANCH   1   9
TORSDOF 4
ENDMDL
MODEL 2
REMARK VINA RESULT:      -5.1      0.939      2.661
REMARK  Name = mexiletine.pdb
REMARK  7 active torsions:
REMARK  status: ('A' for Active; 'I' for Inactive)
REMARK    1  A    between atoms: N_1  and  C_12
REMARK    2  A    between atoms: C_2  and  O_13
REMARK    3  A    between atoms: C_3  and  C_4
REMARK    4  A    between atoms: C_8  and  C_9
REMARK    5  A    between atoms: C_10  and  C_12
REMARK    6  A    between atoms: C_10  and  O_13
REMARK    7  A    between atoms: C_11  and  C_12
REMARK                            x       y       z     vdW  Elec       q    Type
REMARK                         _______ _______ _______ _____ _____    ______ ____
ROOT
ATOM      1  C   UNL A   1      23.314  79.170  94.734  0.00  0.00    +0.127 A 
ATOM      2  C   UNL A   1      22.436  80.144  95.269  0.00  0.00    -0.009 A 
ATOM      3  C   UNL A   1      22.311  81.606  94.916  0.00  0.00    +0.048 C 
ATOM      4  C   UNL A   1      21.583  79.766  96.334  0.00  0.00    +0.007 A 
ATOM      5  C   UNL A   1      21.557  78.473  96.835  0.00  0.00    +0.001 A 
ATOM      6  C   UNL A   1      22.389  77.512  96.287  0.00  0.00    +0.007 A 
ATOM      7  C   UNL A   1      23.269  77.843  95.244  0.00  0.00    -0.009 A 
ATOM      8  C   UNL A   1      24.151  76.750  94.695  0.00  0.00    +0.048 C 
ENDROOT
BRANCH   1   9
ATOM      9  O   UNL A   1      24.282  79.322  93.756  0.00  0.00    -0.486 OA
BRANCH   9  10
ATOM     10  C   UNL A   1      23.847  79.367  92.410  0.00  0.00    +0.282 C 
BRANCH  10  12
ATOM     11  C   UNL A   1      23.759  81.670  91.490  0.00  0.00    +0.067 C 
ATOM     12  C   UNL A   1      24.603  80.394  91.544  0.00  0.00    +0.096 C 
BRANCH  12  13
ATOM     13  N   UNL A   1      24.824  79.907  90.175  0.00  0.00    +0.223 N 
ATOM     14  H   UNL A   1      25.812  79.692  90.046  0.00  0.00    +0.200 HD
ATOM     15  H   UNL A   1      24.543  80.627  89.509  0.00  0.00    +0.200 HD
ATOM     16  H   UNL A   1      24.269  79.065  90.020  0.00  0.00    +0.200 HD
ENDBRANCH  12  13
ENDBRANCH  10  12
ENDBRANCH   9  10
ENDBRANCH   1   9
TORSDOF 4
ENDMDL
MODEL 3
REMARK VINA RESULT:      -5.0      2.064      2.925
REMARK  Name = mexiletine.pdb
REMARK  7 active torsions:
REMARK  status: ('A' for Active; 'I' for Inactive)
REMARK    1  A    between atoms: N_1  and  C_12
REMARK    2  A    between atoms: C_2  and  O_13
REMARK    3  A    between atoms: C_3  and  C_4
REMARK    4  A    between atoms: C_8  and  C_9
REMARK    5  A    between atoms: C_10  and  C_12
REMARK    6  A    between atoms: C_10  and  O_13
REMARK    7  A    between atoms: C_11  and  C_12
REMARK                            x       y       z     vdW  Elec       q    Type
REMARK                         _______ _______ _______ _____ _____    ______ ____
ROOT
ATOM      1  C   UNL A   1      22.568  77.958  93.099  0.00  0.00    +0.127 A 
ATOM      2  C   UNL A   1      22.889  77.091  94.172  0.00  0.00    -0.009 A 
ATOM      3  C   UNL A   1      23.840  77.315  95.322  0.00  0.00    +0.048 C 
ATOM      4  C   UNL A   1      22.322  75.793  94.179  0.00  0.00    +0.007 A 
ATOM      5  C   UNL A   1      21.440  75.367  93.197  0.00  0.00    +0.001 A 
ATOM      6  C   UNL A   1      21.098  76.229  92.169  0.00  0.00    +0.007 A 
ATOM      7  C   UNL A   1      21.651  77.518  92.105  0.00  0.00    -0.009 A 
ATOM      8  C   UNL A   1      21.238  78.404  90.956  0.00  0.00    +0.048 C 
ENDROOT
BRANCH   1   9
ATOM      9  O   UNL A   1      23.053  79.227  92.838  0.00  0.00    -0.486 OA
BRANCH   9  10
ATOM     10  C   UNL A   1      24.407  79.339  92.442  0.00  0.00    +0.282 C 
BRANCH  10  12
ATOM     11  C   UNL A   1      23.682  81.588  91.684  0.00  0.00    +0.067 C 
ATOM     12  C   UNL A   1      24.664  80.448  91.403  0.00  0.00    +0.096 C 
BRANCH  12  13
ATOM     13  N   UNL A   1      24.467  79.973  90.027  0.00  0.00    +0.223 N 
ATOM     14  H   UNL A   1      23.551  80.270  89.693  0.00  0.00    +0.200 HD
ATOM     15  H   UNL A   1      24.523  78.954  90.007  0.00  0.00    +0.200 HD
ATOM     16  H   UNL A   1      25.191  80.365  89.425  0.00  0.00    +0.200 HD
ENDBRANCH  12  13
ENDBRANCH  10  12
ENDBRANCH   9  10
ENDBRANCH   1   9
TORSDOF 4
ENDMDL
MODEL 4
REMARK VINA RESULT:      -5.0      1.989      3.241
REMARK  Name = mexiletine.pdb
REMARK  7 active torsions:
REMARK  status: ('A' for Active; 'I' for Inactive)
REMARK    1  A    between atoms: N_1  and  C_12
REMARK    2  A    between atoms: C_2  and  O_13
REMARK    3  A    between atoms: C_3  and  C_4
REMARK    4  A    between atoms: C_8  and  C_9
REMARK    5  A    between atoms: C_10  and  C_12
REMARK    6  A    between atoms: C_10  and  O_13
REMARK    7  A    between atoms: C_11  and  C_12
REMARK                            x       y       z     vdW  Elec       q    Type
REMARK                         _______ _______ _______ _____ _____    ______ ____
ROOT
ATOM      1  C   UNL A   1      22.769  77.909  93.156  0.00  0.00    +0.127 A 
ATOM      2  C   UNL A   1      21.805  77.550  92.182  0.00  0.00    -0.009 A 
ATOM      3  C   UNL A   1      21.281  78.361  91.022  0.00  0.00    +0.048 C 
ATOM      4  C   UNL A   1      21.158  76.297  92.307  0.00  0.00    +0.007 A 
ATOM      5  C   UNL A   1      21.468  75.404  93.322  0.00  0.00    +0.001 A 
ATOM      6  C   UNL A   1      22.437  75.739  94.252  0.00  0.00    +0.007 A 
ATOM      7  C   UNL A   1      23.091  76.980  94.184  0.00  0.00    -0.009 A 
ATOM      8  C   UNL A   1      24.134  77.284  95.231  0.00  0.00    +0.048 C 
ENDROOT
BRANCH   1   9
ATOM      9  O   UNL A   1      23.467  79.097  93.286  0.00  0.00    -0.486 OA
BRANCH   9  10
ATOM     10  C   UNL A   1      24.651  79.245  92.526  0.00  0.00    +0.282 C 
BRANCH  10  12
ATOM     11  C   UNL A   1      23.444  81.331  91.937  0.00  0.00    +0.067 C 
ATOM     12  C   UNL A   1      24.619  80.431  91.543  0.00  0.00    +0.096 C 
BRANCH  12  13
ATOM     13  N   UNL A   1      24.442  79.993  90.152  0.00  0.00    +0.223 N 
ATOM     14  H   UNL A   1      23.600  80.417  89.766  0.00  0.00    +0.200 HD
ATOM     15  H   UNL A   1      24.355  78.977  90.124  0.00  0.00    +0.200 HD
ATOM     16  H   UNL A   1      25.251  80.279  89.601  0.00  0.00    +0.200 HD
ENDBRANCH  12  13
ENDBRANCH  10  12
ENDBRANCH   9  10
ENDBRANCH   1   9
TORSDOF 4
ENDMDL
MODEL 5
REMARK VINA RESULT:      -4.9      1.991      2.780
REMARK  Name = mexiletine.pdb
REMARK  7 active torsions:
REMARK  status: ('A' for Active; 'I' for Inactive)
REMARK    1  A    between atoms: N_1  and  C_12
REMARK    2  A    between atoms: C_2  and  O_13
REMARK    3  A    between atoms: C_3  and  C_4
REMARK    4  A    between atoms: C_8  and  C_9
REMARK    5  A    between atoms: C_10  and  C_12
REMARK    6  A    between atoms: C_10  and  O_13
REMARK    7  A    between atoms: C_11  and  C_12
REMARK                            x       y       z     vdW  Elec       q    Type
REMARK                         _______ _______ _______ _____ _____    ______ ____
ROOT
ATOM      1  C   UNL A   1      22.781  78.236  93.117  0.00  0.00    +0.127 A 
ATOM      2  C   UNL A   1      21.945  77.093  93.139  0.00  0.00    -0.009 A 
ATOM      3  C   UNL A   1      20.610  76.879  92.468  0.00  0.00    +0.048 C 
ATOM      4  C   UNL A   1      22.332  75.994  93.945  0.00  0.00    +0.007 A 
ATOM      5  C   UNL A   1      23.513  75.991  94.672  0.00  0.00    +0.001 A 
ATOM      6  C   UNL A   1      24.347  77.094  94.619  0.00  0.00    +0.007 A 
ATOM      7  C   UNL A   1      23.997  78.218  93.853  0.00  0.00    -0.009 A 
ATOM      8  C   UNL A   1      24.950  79.387  93.844  0.00  0.00    +0.048 C 
ENDROOT
BRANCH   1   9
ATOM      9  O   UNL A   1      22.575  79.445  92.476  0.00  0.00    -0.486 OA
BRANCH   9  10
ATOM     10  C   UNL A   1      22.648  79.455  91.062  0.00  0.00    +0.282 C 
BRANCH  10  12
ATOM     11  C   UNL A   1      23.171  80.943  89.147  0.00  0.00    +0.067 C 
ATOM     12  C   UNL A   1      23.689  80.440  90.497  0.00  0.00    +0.096 C 
BRANCH  12  13
ATOM     13  N   UNL A   1      25.001  79.808  90.302  0.00  0.00    +0.223 N 
ATOM     14  H   UNL A   1      25.703  80.527  90.129  0.00  0.00    +0.200 HD
ATOM     15  H   UNL A   1      24.958  79.175  89.503  0.00  0.00    +0.200 HD
ATOM     16  H   UNL A   1      25.252  79.282  91.139  0.00  0.00    +0.200 HD
ENDBRANCH  12  13
ENDBRANCH  10  12
ENDBRANCH   9  10
ENDBRANCH   1   9
TORSDOF 4
ENDMDL
MODEL 6
REMARK VINA RESULT:      -4.9      2.764      4.125
REMARK  Name = mexiletine.pdb
REMARK  7 active torsions:
REMARK  status: ('A' for Active; 'I' for Inactive)
REMARK    1  A    between atoms: N_1  and  C_12
REMARK    2  A    between atoms: C_2  and  O_13
REMARK    3  A    between atoms: C_3  and  C_4
REMARK    4  A    between atoms: C_8  and  C_9
REMARK    5  A    between atoms: C_10  and  C_12
REMARK    6  A    between atoms: C_10  and  O_13
REMARK    7  A    between atoms: C_11  and  C_12
REMARK                            x       y       z     vdW  Elec       q    Type
REMARK                         _______ _______ _______ _____ _____    ______ ____
ROOT
ATOM      1  C   UNL A   1      23.058  78.158  94.061  0.00  0.00    +0.127 A 
ATOM      2  C   UNL A   1      23.304  76.811  94.423  0.00  0.00    -0.009 A 
ATOM      3  C   UNL A   1      22.314  75.700  94.676  0.00  0.00    +0.048 C 
ATOM      4  C   UNL A   1      24.642  76.414  94.662  0.00  0.00    +0.007 A 
ATOM      5  C   UNL A   1      25.709  77.288  94.515  0.00  0.00    +0.001 A 
ATOM      6  C   UNL A   1      25.471  78.595  94.125  0.00  0.00    +0.007 A 
ATOM      7  C   UNL A   1      24.159  79.043  93.897  0.00  0.00    -0.009 A 
ATOM      8  C   UNL A   1      23.970  80.480  93.478  0.00  0.00    +0.048 C 
ENDROOT
BRANCH   1   9
ATOM      9  O   UNL A   1      21.844  78.791  93.855  0.00  0.00    -0.486 OA
BRANCH   9  10
ATOM     10  C   UNL A   1      20.961  78.883  94.957  0.00  0.00    +0.282 C 
BRANCH  10  12
ATOM     11  C   UNL A   1      21.366  78.334  97.343  0.00  0.00    +0.067 C 
ATOM     12  C   UNL A   1      21.630  79.378  96.254  0.00  0.00    +0.096 C 
BRANCH  12  13
ATOM     13  N   UNL A   1      21.096  80.675  96.692  0.00  0.00    +0.223 N 
ATOM     14  H   UNL A   1      20.421  80.529  97.442  0.00  0.00    +0.200 HD
ATOM     15  H   UNL A   1      20.638  81.137  95.906  0.00  0.00    +0.200 HD
ATOM     16  H   UNL A   1      21.860  81.259  97.031  0.00  0.00    +0.200 HD
ENDBRANCH  12  13
ENDBRANCH  10  12
ENDBRANCH   9  10
ENDBRANCH   1   9
TORSDOF 4
ENDMDL
MODEL 7
REMARK VINA RESULT:      -4.9      9.967     12.373
REMARK  Name = mexiletine.pdb
REMARK  7 active torsions:
REMARK  status: ('A' for Active; 'I' for Inactive)
REMARK    1  A    between atoms: N_1  and  C_12
REMARK    2  A    between atoms: C_2  and  O_13
REMARK    3  A    between atoms: C_3  and  C_4
REMARK    4  A    between atoms: C_8  and  C_9
REMARK    5  A    between atoms: C_10  and  C_12
REMARK    6  A    between atoms: C_10  and  O_13
REMARK    7  A    between atoms: C_11  and  C_12
REMARK                            x       y       z     vdW  Elec       q    Type
REMARK                         _______ _______ _______ _____ _____    ______ ____
ROOT
ATOM      1  C   UNL A   1      33.158  72.029  96.285  0.00  0.00    +0.127 A 
ATOM      2  C   UNL A   1      33.650  70.801  96.792  0.00  0.00    -0.009 A 
ATOM      3  C   UNL A   1      33.778  70.349  98.226  0.00  0.00    +0.048 C 
ATOM      4  C   UNL A   1      34.173  69.858  95.874  0.00  0.00    +0.007 A 
ATOM      5  C   UNL A   1      34.179  70.084  94.506  0.00  0.00    +0.001 A 
ATOM      6  C   UNL A   1      33.664  71.269  94.009  0.00  0.00    +0.007 A 
ATOM      7  C   UNL A   1      33.155  72.246  94.880  0.00  0.00    -0.009 A 
ATOM      8  C   UNL A   1      32.613  73.515  94.272  0.00  0.00    +0.048 C 
ENDROOT
BRANCH   1   9
ATOM      9  O   UNL A   1      32.677  73.123  96.984  0.00  0.00    -0.486 OA
BRANCH   9  10
ATOM     10  C   UNL A   1      31.439  72.977  97.653  0.00  0.00    +0.282 C 
BRANCH  10  12
ATOM     11  C   UNL A   1      31.018  75.353  97.074  0.00  0.00    +0.067 C 
ATOM     12  C   UNL A   1      30.359  73.975  97.194  0.00  0.00    +0.096 C 
BRANCH  12  13
ATOM     13  N   UNL A   1      29.242  74.059  98.144  0.00  0.00    +0.223 N 
ATOM     14  H   UNL A   1      28.920  75.024  98.207  0.00  0.00    +0.200 HD
ATOM     15  H   UNL A   1      29.553  73.743  99.063  0.00  0.00    +0.200 HD
ATOM     16  H   UNL A   1      28.477  73.466  97.822  0.00  0.00    +0.200 HD
ENDBRANCH  12  13
ENDBRANCH  10  12
ENDBRANCH   9  10
ENDBRANCH   1   9
TORSDOF 4
ENDMDL
MODEL 8
REMARK VINA RESULT:      -4.9      2.836      4.423
REMARK  Name = mexiletine.pdb
REMARK  7 active torsions:
REMARK  status: ('A' for Active; 'I' for Inactive)
REMARK    1  A    between atoms: N_1  and  C_12
REMARK    2  A    between atoms: C_2  and  O_13
REMARK    3  A    between atoms: C_3  and  C_4
REMARK    4  A    between atoms: C_8  and  C_9
REMARK    5  A    between atoms: C_10  and  C_12
REMARK    6  A    between atoms: C_10  and  O_13
REMARK    7  A    between atoms: C_11  and  C_12
REMARK                            x       y       z     vdW  Elec       q    Type
REMARK                         _______ _______ _______ _____ _____    ______ ____
ROOT
ATOM      1  C   UNL A   1      23.387  78.198  95.033  0.00  0.00    +0.127 A 
ATOM      2  C   UNL A   1      22.652  79.409  95.040  0.00  0.00    -0.009 A 
ATOM      3  C   UNL A   1      21.338  79.718  95.716  0.00  0.00    +0.048 C 
ATOM      4  C   UNL A   1      23.133  80.491  94.263  0.00  0.00    +0.007 A 
ATOM      5  C   UNL A   1      24.312  80.411  93.537  0.00  0.00    +0.001 A 
ATOM      6  C   UNL A   1      25.049  79.240  93.562  0.00  0.00    +0.007 A 
ATOM      7  C   UNL A   1      24.603  78.131  94.298  0.00  0.00    -0.009 A 
ATOM      8  C   UNL A   1      25.452  76.885  94.278  0.00  0.00    +0.048 C 
ENDROOT
BRANCH   1   9
ATOM      9  O   UNL A   1      23.077  76.995  95.644  0.00  0.00    -0.486 OA
BRANCH   9  10
ATOM     10  C   UNL A   1      21.908  76.326  95.211  0.00  0.00    +0.282 C 
BRANCH  10  12
ATOM     11  C   UNL A   1      21.499  76.621  92.782  0.00  0.00    +0.067 C 
ATOM     12  C   UNL A   1      22.047  75.652  93.833  0.00  0.00    +0.096 C 
BRANCH  12  13
ATOM     13  N   UNL A   1      21.300  74.389  93.757  0.00  0.00    +0.223 N 
ATOM     14  H   UNL A   1      21.315  74.042  92.798  0.00  0.00    +0.200 HD
ATOM     15  H   UNL A   1      20.335  74.547  94.046  0.00  0.00    +0.200 HD
ATOM     16  H   UNL A   1      21.732  73.701  94.374  0.00  0.00    +0.200 HD
ENDBRANCH  12  13
ENDBRANCH  10  12
ENDBRANCH   9  10
ENDBRANCH   1   9
TORSDOF 4
ENDMDL
MODEL 9
REMARK VINA RESULT:      -4.8      9.586     12.119
REMARK  Name = mexiletine.pdb
REMARK  7 active torsions:
REMARK  status: ('A' for Active; 'I' for Inactive)
REMARK    1  A    between atoms: N_1  and  C_12
REMARK    2  A    between atoms: C_2  and  O_13
REMARK    3  A    between atoms: C_3  and  C_4
REMARK    4  A    between atoms: C_8  and  C_9
REMARK    5  A    between atoms: C_10  and  C_12
REMARK    6  A    between atoms: C_10  and  O_13
REMARK    7  A    between atoms: C_11  and  C_12
REMARK                            x       y       z     vdW  Elec       q    Type
REMARK                         _______ _______ _______ _____ _____    ______ ____
ROOT
ATOM      1  C   UNL A   1      31.811  71.647  96.645  0.00  0.00    +0.127 A 
ATOM      2  C   UNL A   1      32.594  71.685  95.465  0.00  0.00    -0.009 A 
ATOM      3  C   UNL A   1      32.457  72.590  94.264  0.00  0.00    +0.048 C 
ATOM      4  C   UNL A   1      33.615  70.717  95.305  0.00  0.00    +0.007 A 
ATOM      5  C   UNL A   1      33.892  69.769  96.278  0.00  0.00    +0.001 A 
ATOM      6  C   UNL A   1      33.151  69.756  97.448  0.00  0.00    +0.007 A 
ATOM      7  C   UNL A   1      32.112  70.681  97.644  0.00  0.00    -0.009 A 
ATOM      8  C   UNL A   1      31.342  70.609  98.939  0.00  0.00    +0.048 C 
ENDROOT
BRANCH   1   9
ATOM      9  O   UNL A   1      30.721  72.429  96.985  0.00  0.00    -0.486 OA
BRANCH   9  10
ATOM     10  C   UNL A   1      30.956  73.801  97.239  0.00  0.00    +0.282 C 
BRANCH  10  12
ATOM     11  C   UNL A   1      30.067  74.049  99.543  0.00  0.00    +0.067 C 
ATOM     12  C   UNL A   1      29.861  74.476  98.086  0.00  0.00    +0.096 C 
BRANCH  12  13
ATOM     13  N   UNL A   1      28.510  74.085  97.658  0.00  0.00    +0.223 N 
ATOM     14  H   UNL A   1      27.833  74.375  98.363  0.00  0.00    +0.200 HD
ATOM     15  H   UNL A   1      28.470  73.072  97.543  0.00  0.00    +0.200 HD
ATOM     16  H   UNL A   1      28.292  74.537  96.771  0.00  0.00    +0.200 HD
ENDBRANCH  12  13
ENDBRANCH  10  12
ENDBRANCH   9  10
ENDBRANCH   1   9
TORSDOF 4
ENDMDL
MODEL 10
REMARK VINA RESULT:      -4.8      2.098      3.288
REMARK  Name = mexiletine.pdb
REMARK  7 active torsions:
REMARK  status: ('A' for Active; 'I' for Inactive)
REMARK    1  A    between atoms: N_1  and  C_12
REMARK    2  A    between atoms: C_2  and  O_13
REMARK    3  A    between atoms: C_3  and  C_4
REMARK    4  A    between atoms: C_8  and  C_9
REMARK    5  A    between atoms: C_10  and  C_12
REMARK    6  A    between atoms: C_10  and  O_13
REMARK    7  A    between atoms: C_11  and  C_12
REMARK                            x       y       z     vdW  Elec       q    Type
REMARK                         _______ _______ _______ _____ _____    ______ ____
ROOT
ATOM      1  C   UNL A   1      23.427  77.831  93.378  0.00  0.00    +0.127 A 
ATOM      2  C   UNL A   1      22.216  77.543  92.701  0.00  0.00    -0.009 A 
ATOM      3  C   UNL A   1      21.526  78.330  91.614  0.00  0.00    +0.048 C 
ATOM      4  C   UNL A   1      21.472  76.410  93.110  0.00  0.00    +0.007 A 
ATOM      5  C   UNL A   1      21.911  75.562  94.115  0.00  0.00    +0.001 A 
ATOM      6  C   UNL A   1      23.113  75.823  94.751  0.00  0.00    +0.007 A 
ATOM      7  C   UNL A   1      23.877  76.947  94.398  0.00  0.00    -0.009 A 
ATOM      8  C   UNL A   1      25.174  77.175  95.132  0.00  0.00    +0.048 C 
ENDROOT
BRANCH   1   9
ATOM      9  O   UNL A   1      24.275  78.912  93.212  0.00  0.00    -0.486 OA
BRANCH   9  10
ATOM     10  C   UNL A   1      23.842  80.164  93.709  0.00  0.00    +0.282 C 
BRANCH  10  12
ATOM     11  C   UNL A   1      24.353  80.841  91.377  0.00  0.00    +0.067 C 
ATOM     12  C   UNL A   1      23.518  81.195  92.611  0.00  0.00    +0.096 C 
BRANCH  12  13
ATOM     13  N   UNL A   1      23.838  82.567  93.029  0.00  0.00    +0.223 N 
ATOM     14  H   UNL A   1      22.983  83.042  93.318  0.00  0.00    +0.200 HD
ATOM     15  H   UNL A   1      24.259  83.071  92.248  0.00  0.00    +0.200 HD
ATOM     16  H   UNL A   1      24.493  82.541  93.809  0.00  0.00    +0.200 HD
ENDBRANCH  12  13
ENDBRANCH  10  12
ENDBRANCH   9  10
ENDBRANCH   1   9
TORSDOF 4
ENDMDL
MODEL 11
REMARK VINA RESULT:      -4.8     11.506     13.995
REMARK  Name = mexiletine.pdb
REMARK  7 active torsions:
REMARK  status: ('A' for Active; 'I' for Inactive)
REMARK    1  A    between atoms: N_1  and  C_12
REMARK    2  A    between atoms: C_2  and  O_13
REMARK    3  A    between atoms: C_3  and  C_4
REMARK    4  A    between atoms: C_8  and  C_9
REMARK    5  A    between atoms: C_10  and  C_12
REMARK    6  A    between atoms: C_10  and  O_13
REMARK    7  A    between atoms: C_11  and  C_12
REMARK                            x       y       z     vdW  Elec       q    Type
REMARK                         _______ _______ _______ _____ _____    ______ ____
ROOT
ATOM      1  C   UNL A   1      34.198  70.662  96.163  0.00  0.00    +0.127 A 
ATOM      2  C   UNL A   1      34.794  70.537  94.884  0.00  0.00    -0.009 A 
ATOM      3  C   UNL A   1      35.172  71.619  93.902  0.00  0.00    +0.048 C 
ATOM      4  C   UNL A   1      35.024  69.235  94.375  0.00  0.00    +0.007 A 
ATOM      5  C   UNL A   1      34.723  68.094  95.103  0.00  0.00    +0.001 A 
ATOM      6  C   UNL A   1      34.176  68.218  96.368  0.00  0.00    +0.007 A 
ATOM      7  C   UNL A   1      33.907  69.486  96.908  0.00  0.00    -0.009 A 
ATOM      8  C   UNL A   1      33.307  69.549  98.290  0.00  0.00    +0.048 C 
ENDROOT
BRANCH   1   9
ATOM      9  O   UNL A   1      33.810  71.812  96.827  0.00  0.00    -0.486 OA
BRANCH   9  10
ATOM     10  C   UNL A   1      32.895  72.668  96.170  0.00  0.00    +0.282 C 
BRANCH  10  12
ATOM     11  C   UNL A   1      31.619  72.780  98.295  0.00  0.00    +0.067 C 
ATOM     12  C   UNL A   1      31.478  72.651  96.775  0.00  0.00    +0.096 C 
BRANCH  12  13
ATOM     13  N   UNL A   1      30.758  71.409  96.464  0.00  0.00    +0.223 N 
ATOM     14  H   UNL A   1      30.598  71.352  95.458  0.00  0.00    +0.200 HD
ATOM     15  H   UNL A   1      29.861  71.405  96.951  0.00  0.00    +0.200 HD
ATOM     16  H   UNL A   1      31.313  70.610  96.766  0.00  0.00    +0.200 HD
ENDBRANCH  12  13
ENDBRANCH  10  12
ENDBRANCH   9  10
ENDBRANCH   1   9
TORSDOF 4
ENDMDL
MODEL 12
REMARK VINA RESULT:      -4.8      3.175      5.233
REMARK  Name = mexiletine.pdb
REMARK  7 active torsions:
REMARK  status: ('A' for Active; 'I' for Inactive)
REMARK    1  A    between atoms: N_1  and  C_12
REMARK    2  A    between atoms: C_2  and  O_13
REMARK    3  A    between atoms: C_3  and  C_4
REMARK    4  A    between atoms: C_8  and  C_9
REMARK    5  A    between atoms: C_10  and  C_12
REMARK    6  A    between atoms: C_10  and  O_13
REMARK    7  A    between atoms: C_11  and  C_12
REMARK                            x       y       z     vdW  Elec       q    Type
REMARK                         _______ _______ _______ _____ _____    ______ ____
ROOT
ATOM      1  C   UNL A   1      23.261  78.457  95.286  0.00  0.00    +0.127 A 
ATOM      2  C   UNL A   1      22.704  79.752  95.155  0.00  0.00    -0.009 A 
ATOM      3  C   UNL A   1      21.565  80.378  95.922  0.00  0.00    +0.048 C 
ATOM      4  C   UNL A   1      23.199  80.596  94.130  0.00  0.00    +0.007 A 
ATOM      5  C   UNL A   1      24.230  80.206  93.288  0.00  0.00    +0.001 A 
ATOM      6  C   UNL A   1      24.799  78.954  93.441  0.00  0.00    +0.007 A 
ATOM      7  C   UNL A   1      24.328  78.072  94.428  0.00  0.00    -0.009 A 
ATOM      8  C   UNL A   1      24.990  76.722  94.538  0.00  0.00    +0.048 C 
ENDROOT
BRANCH   1   9
ATOM      9  O   UNL A   1      22.892  77.440  96.150  0.00  0.00    -0.486 OA
BRANCH   9  10
ATOM     10  C   UNL A   1      21.609  76.870  95.976  0.00  0.00    +0.282 C 
BRANCH  10  12
ATOM     11  C   UNL A   1      19.450  77.504  97.022  0.00  0.00    +0.067 C 
ATOM     12  C   UNL A   1      20.781  76.789  97.273  0.00  0.00    +0.096 C 
BRANCH  12  13
ATOM     13  N   UNL A   1      21.463  77.428  98.406  0.00  0.00    +0.223 N 
ATOM     14  H   UNL A   1      20.842  77.440  99.215  0.00  0.00    +0.200 HD
ATOM     15  H   UNL A   1      21.715  78.385  98.156  0.00  0.00    +0.200 HD
ATOM     16  H   UNL A   1      22.307  76.903  98.634  0.00  0.00    +0.200 HD
ENDBRANCH  12  13
ENDBRANCH  10  12
ENDBRANCH   9  10
ENDBRANCH   1   9
TORSDOF 4
ENDMDL
MODEL 13
REMARK VINA RESULT:      -4.8      2.190      2.998
REMARK  Name = mexiletine.pdb
REMARK  7 active torsions:
REMARK  status: ('A' for Active; 'I' for Inactive)
REMARK    1  A    between atoms: N_1  and  C_12
REMARK    2  A    between atoms: C_2  and  O_13
REMARK    3  A    between atoms: C_3  and  C_4
REMARK    4  A    between atoms: C_8  and  C_9
REMARK    5  A    between atoms: C_10  and  C_12
REMARK    6  A    between atoms: C_10  and  O_13
REMARK    7  A    between atoms: C_11  and  C_12
REMARK                            x       y       z     vdW  Elec       q    Type
REMARK                         _______ _______ _______ _____ _____    ______ ____
ROOT
ATOM      1  C   UNL A   1      22.837  77.983  92.793  0.00  0.00    +0.127 A 
ATOM      2  C   UNL A   1      23.856  77.982  93.777  0.00  0.00    -0.009 A 
ATOM      3  C   UNL A   1      25.010  78.940  93.949  0.00  0.00    +0.048 C 
ATOM      4  C   UNL A   1      23.886  76.918  94.711  0.00  0.00    +0.007 A 
ATOM      5  C   UNL A   1      22.933  75.911  94.714  0.00  0.00    +0.001 A 
ATOM      6  C   UNL A   1      21.915  75.933  93.776  0.00  0.00    +0.007 A 
ATOM      7  C   UNL A   1      21.855  76.954  92.814  0.00  0.00    -0.009 A 
ATOM      8  C   UNL A   1      20.722  76.916  91.818  0.00  0.00    +0.048 C 
ENDROOT
BRANCH   1   9
ATOM      9  O   UNL A   1      22.651  78.862  91.741  0.00  0.00    -0.486 OA
BRANCH   9  10
ATOM     10  C   UNL A   1      22.355  80.209  92.060  0.00  0.00    +0.282 C 
BRANCH  10  12
ATOM     11  C   UNL A   1      24.313  80.450  90.554  0.00  0.00    +0.067 C 
ATOM     12  C   UNL A   1      23.288  81.231  91.383  0.00  0.00    +0.096 C 
BRANCH  12  13
ATOM     13  N   UNL A   1      23.999  82.065  92.362  0.00  0.00    +0.223 N 
ATOM     14  H   UNL A   1      24.792  82.519  91.910  0.00  0.00    +0.200 HD
ATOM     15  H   UNL A   1      24.333  81.480  93.128  0.00  0.00    +0.200 HD
ATOM     16  H   UNL A   1      23.364  82.774  92.728  0.00  0.00    +0.200 HD
ENDBRANCH  12  13
ENDBRANCH  10  12
ENDBRANCH   9  10
ENDBRANCH   1   9
TORSDOF 4
ENDMDL
MODEL 14
REMARK VINA RESULT:      -4.8      9.615     12.075
REMARK  Name = mexiletine.pdb
REMARK  7 active torsions:
REMARK  status: ('A' for Active; 'I' for Inactive)
REMARK    1  A    between atoms: N_1  and  C_12
REMARK    2  A    between atoms: C_2  and  O_13
REMARK    3  A    between atoms: C_3  and  C_4
REMARK    4  A    between atoms: C_8  and  C_9
REMARK    5  A    between atoms: C_10  and  C_12
REMARK    6  A    between atoms: C_10  and  O_13
REMARK    7  A    between atoms: C_11  and  C_12
REMARK                            x       y       z     vdW  Elec       q    Type
REMARK                         _______ _______ _______ _____ _____    ______ ____
ROOT
ATOM      1  C   UNL A   1      31.679  71.601  97.014  0.00  0.00    +0.127 A 
ATOM      2  C   UNL A   1      31.915  70.723  98.100  0.00  0.00    -0.009 A 
ATOM      3  C   UNL A   1      31.211  70.651  99.434  0.00  0.00    +0.048 C 
ATOM      4  C   UNL A   1      32.995  69.811  98.004  0.00  0.00    +0.007 A 
ATOM      5  C   UNL A   1      33.793  69.729  96.873  0.00  0.00    +0.001 A 
ATOM      6  C   UNL A   1      33.538  70.562  95.797  0.00  0.00    +0.007 A 
ATOM      7  C   UNL A   1      32.493  71.498  95.852  0.00  0.00    -0.009 A 
ATOM      8  C   UNL A   1      32.272  72.378  94.647  0.00  0.00    +0.048 C 
ENDROOT
BRANCH   1   9
ATOM      9  O   UNL A   1      30.745  72.617  96.911  0.00  0.00    -0.486 OA
BRANCH   9  10
ATOM     10  C   UNL A   1      31.032  73.837  97.569  0.00  0.00    +0.282 C 
BRANCH  10  12
ATOM     11  C   UNL A   1      29.822  74.101  99.719  0.00  0.00    +0.067 C 
ATOM     12  C   UNL A   1      29.806  74.489  98.237  0.00  0.00    +0.096 C 
BRANCH  12  13
ATOM     13  N   UNL A   1      28.543  74.039  97.637  0.00  0.00    +0.223 N 
ATOM     14  H   UNL A   1      28.733  73.591  96.741  0.00  0.00    +0.200 HD
ATOM     15  H   UNL A   1      27.931  74.842  97.492  0.00  0.00    +0.200 HD
ATOM     16  H   UNL A   1      28.089  73.373  98.261  0.00  0.00    +0.200 HD
ENDBRANCH  12  13
ENDBRANCH  10  12
ENDBRANCH   9  10
ENDBRANCH   1   9
TORSDOF 4
ENDMDL
MODEL 15
REMARK VINA RESULT:      -4.8     11.334     13.769
REMARK  Name = mexiletine.pdb
REMARK  7 active torsions:
REMARK  status: ('A' for Active; 'I' for Inactive)
REMARK    1  A    between atoms: N_1  and  C_12
REMARK    2  A    between atoms: C_2  and  O_13
REMARK    3  A    between atoms: C_3  and  C_4
REMARK    4  A    between atoms: C_8  and  C_9
REMARK    5  A    between atoms: C_10  and  C_12
REMARK    6  A    between atoms: C_10  and  O_13
REMARK    7  A    between atoms: C_11  and  C_12
REMARK                            x       y       z     vdW  Elec       q    Type
REMARK                         _______ _______ _______ _____ _____    ______ ____
ROOT
ATOM      1  C   UNL A   1      34.322  70.812  95.799  0.00  0.00    +0.127 A 
ATOM      2  C   UNL A   1      34.130  69.409  95.793  0.00  0.00    -0.009 A 
ATOM      3  C   UNL A   1      33.781  68.494  96.941  0.00  0.00    +0.048 C 
ATOM      4  C   UNL A   1      34.354  68.706  94.584  0.00  0.00    +0.007 A 
ATOM      5  C   UNL A   1      34.712  69.352  93.410  0.00  0.00    +0.001 A 
ATOM      6  C   UNL A   1      34.863  70.728  93.408  0.00  0.00    +0.007 A 
ATOM      7  C   UNL A   1      34.675  71.468  94.587  0.00  0.00    -0.009 A 
ATOM      8  C   UNL A   1      34.859  72.963  94.516  0.00  0.00    +0.048 C 
ENDROOT
BRANCH   1   9
ATOM      9  O   UNL A   1      34.241  71.692  96.865  0.00  0.00    -0.486 OA
BRANCH   9  10
ATOM     10  C   UNL A   1      32.993  71.809  97.521  0.00  0.00    +0.282 C 
BRANCH  10  12
ATOM     11  C   UNL A   1      31.302  73.603  97.246  0.00  0.00    +0.067 C 
ATOM     12  C   UNL A   1      31.857  72.323  96.616  0.00  0.00    +0.096 C 
BRANCH  12  13
ATOM     13  N   UNL A   1      30.770  71.344  96.482  0.00  0.00    +0.223 N 
ATOM     14  H   UNL A   1      29.979  71.633  97.056  0.00  0.00    +0.200 HD
ATOM     15  H   UNL A   1      31.097  70.428  96.790  0.00  0.00    +0.200 HD
ATOM     16  H   UNL A   1      30.480  71.290  95.505  0.00  0.00    +0.200 HD
ENDBRANCH  12  13
ENDBRANCH  10  12
ENDBRANCH   9  10
ENDBRANCH   1   9
TORSDOF 4
ENDMDL
MODEL 16
REMARK VINA RESULT:      -4.8      2.349      4.019
REMARK  Name = mexiletine.pdb
REMARK  7 active torsions:
REMARK  status: ('A' for Active; 'I' for Inactive)
REMARK    1  A    between atoms: N_1  and  C_12
REMARK    2  A    between atoms: C_2  and  O_13
REMARK    3  A    between atoms: C_3  and  C_4
REMARK    4  A    between atoms: C_8  and  C_9
REMARK    5  A    between atoms: C_10  and  C_12
REMARK    6  A    between atoms: C_10  and  O_13
REMARK    7  A    between atoms: C_11  and  C_12
REMARK                            x       y       z     vdW  Elec       q    Type
REMARK                         _______ _______ _______ _____ _____    ______ ____
ROOT
ATOM      1  C   UNL A   1      23.345  79.936  93.861  0.00  0.00    +0.127 A 
ATOM      2  C   UNL A   1      23.652  80.961  92.932  0.00  0.00    -0.009 A 
ATOM      3  C   UNL A   1      24.452  80.876  91.654  0.00  0.00    +0.048 C 
ATOM      4  C   UNL A   1      23.237  82.282  93.228  0.00  0.00    +0.007 A 
ATOM      5  C   UNL A   1      22.512  82.589  94.369  0.00  0.00    +0.001 A 
ATOM      6  C   UNL A   1      22.180  81.581  95.258  0.00  0.00    +0.007 A 
ATOM      7  C   UNL A   1      22.588  80.258  95.021  0.00  0.00    -0.009 A 
ATOM      8  C   UNL A   1      22.196  79.210  96.031  0.00  0.00    +0.048 C 
ENDROOT
BRANCH   1   9
ATOM      9  O   UNL A   1      23.709  78.602  93.828  0.00  0.00    -0.486 OA
BRANCH   9  10
ATOM     10  C   UNL A   1      25.077  78.293  94.021  0.00  0.00    +0.282 C 
BRANCH  10  12
ATOM     11  C   UNL A   1      23.992  76.194  94.779  0.00  0.00    +0.067 C 
ATOM     12  C   UNL A   1      25.337  76.824  94.407  0.00  0.00    +0.096 C 
BRANCH  12  13
ATOM     13  N   UNL A   1      26.254  76.707  95.550  0.00  0.00    +0.223 N 
ATOM     14  H   UNL A   1      26.596  77.632  95.807  0.00  0.00    +0.200 HD
ATOM     15  H   UNL A   1      27.042  76.112  95.293  0.00  0.00    +0.200 HD
ATOM     16  H   UNL A   1      25.760  76.294  96.340  0.00  0.00    +0.200 HD
ENDBRANCH  12  13
ENDBRANCH  10  12
ENDBRANCH   9  10
ENDBRANCH   1   9
TORSDOF 4
ENDMDL
MODEL 17
REMARK VINA RESULT:      -4.7     11.005     13.510
REMARK  Name = mexiletine.pdb
REMARK  7 active torsions:
REMARK  status: ('A' for Active; 'I' for Inactive)
REMARK    1  A    between atoms: N_1  and  C_12
REMARK    2  A    between atoms: C_2  and  O_13
REMARK    3  A    between atoms: C_3  and  C_4
REMARK    4  A    between atoms: C_8  and  C_9
REMARK    5  A    between atoms: C_10  and  C_12
REMARK    6  A    between atoms: C_10  and  O_13
REMARK    7  A    between atoms: C_11  and  C_12
REMARK                            x       y       z     vdW  Elec       q    Type
REMARK                         _______ _______ _______ _____ _____    ______ ____
ROOT
ATOM      1  C   UNL A   1      33.971  71.421  96.015  0.00  0.00    +0.127 A 
ATOM      2  C   UNL A   1      34.674  71.856  94.864  0.00  0.00    -0.009 A 
ATOM      3  C   UNL A   1      34.938  73.264  94.388  0.00  0.00    +0.048 C 
ATOM      4  C   UNL A   1      35.156  70.876  93.962  0.00  0.00    +0.007 A 
ATOM      5  C   UNL A   1      34.996  69.518  94.193  0.00  0.00    +0.001 A 
ATOM      6  C   UNL A   1      34.342  69.093  95.337  0.00  0.00    +0.007 A 
ATOM      7  C   UNL A   1      33.826  70.026  96.251  0.00  0.00    -0.009 A 
ATOM      8  C   UNL A   1      33.121  69.496  97.474  0.00  0.00    +0.048 C 
ENDROOT
BRANCH   1   9
ATOM      9  O   UNL A   1      33.347  72.184  96.986  0.00  0.00    -0.486 OA
BRANCH   9  10
ATOM     10  C   UNL A   1      32.169  72.875  96.616  0.00  0.00    +0.282 C 
BRANCH  10  12
ATOM     11  C   UNL A   1      31.535  72.465  98.980  0.00  0.00    +0.067 C 
ATOM     12  C   UNL A   1      31.375  73.439  97.810  0.00  0.00    +0.096 C 
BRANCH  12  13
ATOM     13  N   UNL A   1      29.946  73.590  97.503  0.00  0.00    +0.223 N 
ATOM     14  H   UNL A   1      29.456  73.937  98.327  0.00  0.00    +0.200 HD
ATOM     15  H   UNL A   1      29.559  72.685  97.234  0.00  0.00    +0.200 HD
ATOM     16  H   UNL A   1      29.831  74.251  96.735  0.00  0.00    +0.200 HD
ENDBRANCH  12  13
ENDBRANCH  10  12
ENDBRANCH   9  10
ENDBRANCH   1   9
TORSDOF 4
ENDMDL
MODEL 18
REMARK VINA RESULT:      -4.7     11.337     13.748
REMARK  Name = mexiletine.pdb
REMARK  7 active torsions:
REMARK  status: ('A' for Active; 'I' for Inactive)
REMARK    1  A    between atoms: N_1  and  C_12
REMARK    2  A    between atoms: C_2  and  O_13
REMARK    3  A    between atoms: C_3  and  C_4
REMARK    4  A    between atoms: C_8  and  C_9
REMARK    5  A    between atoms: C_10  and  C_12
REMARK    6  A    between atoms: C_10  and  O_13
REMARK    7  A    between atoms: C_11  and  C_12
REMARK                            x       y       z     vdW  Elec       q    Type
REMARK                         _______ _______ _______ _____ _____    ______ ____
ROOT
ATOM      1  C   UNL A   1      34.121  70.578  96.292  0.00  0.00    +0.127 A 
ATOM      2  C   UNL A   1      34.624  70.254  95.008  0.00  0.00    -0.009 A 
ATOM      3  C   UNL A   1      34.979  71.175  93.867  0.00  0.00    +0.048 C 
ATOM      4  C   UNL A   1      34.767  68.886  94.669  0.00  0.00    +0.007 A 
ATOM      5  C   UNL A   1      34.469  67.869  95.563  0.00  0.00    +0.001 A 
ATOM      6  C   UNL A   1      34.013  68.188  96.831  0.00  0.00    +0.007 A 
ATOM      7  C   UNL A   1      33.833  69.529  97.208  0.00  0.00    -0.009 A 
ATOM      8  C   UNL A   1      33.329  69.806  98.602  0.00  0.00    +0.048 C 
ENDROOT
BRANCH   1   9
ATOM      9  O   UNL A   1      33.825  71.825  96.815  0.00  0.00    -0.486 OA
BRANCH   9  10
ATOM     10  C   UNL A   1      32.607  72.427  96.418  0.00  0.00    +0.282 C 
BRANCH  10  12
ATOM     11  C   UNL A   1      31.730  74.748  96.380  0.00  0.00    +0.067 C 
ATOM     12  C   UNL A   1      32.778  73.813  95.768  0.00  0.00    +0.096 C 
BRANCH  12  13
ATOM     13  N   UNL A   1      32.589  73.769  94.312  0.00  0.00    +0.223 N 
ATOM     14  H   UNL A   1      32.314  74.691  93.976  0.00  0.00    +0.200 HD
ATOM     15  H   UNL A   1      31.860  73.092  94.084  0.00  0.00    +0.200 HD
ATOM     16  H   UNL A   1      33.462  73.490  93.865  0.00  0.00    +0.200 HD
ENDBRANCH  12  13
ENDBRANCH  10  12
ENDBRANCH   9  10
ENDBRANCH   1   9
TORSDOF 4
ENDMDL
MODEL 19
REMARK VINA RESULT:      -4.7      2.689      3.900
REMARK  Name = mexiletine.pdb
REMARK  7 active torsions:
REMARK  status: ('A' for Active; 'I' for Inactive)
REMARK    1  A    between atoms: N_1  and  C_12
REMARK    2  A    between atoms: C_2  and  O_13
REMARK    3  A    between atoms: C_3  and  C_4
REMARK    4  A    between atoms: C_8  and  C_9
REMARK    5  A    between atoms: C_10  and  C_12
REMARK    6  A    between atoms: C_10  and  O_13
REMARK    7  A    between atoms: C_11  and  C_12
REMARK                            x       y       z     vdW  Elec       q    Type
REMARK                         _______ _______ _______ _____ _____    ______ ____
ROOT
ATOM      1  C   UNL A   1      23.090  78.282  95.328  0.00  0.00    +0.127 A 
ATOM      2  C   UNL A   1      24.245  77.896  94.605  0.00  0.00    -0.009 A 
ATOM      3  C   UNL A   1      25.010  76.596  94.660  0.00  0.00    +0.048 C 
ATOM      4  C   UNL A   1      24.850  78.848  93.748  0.00  0.00    +0.007 A 
ATOM      5  C   UNL A   1      24.325  80.119  93.570  0.00  0.00    +0.001 A 
ATOM      6  C   UNL A   1      23.175  80.483  94.249  0.00  0.00    +0.007 A 
ATOM      7  C   UNL A   1      22.550  79.583  95.128  0.00  0.00    -0.009 A 
ATOM      8  C   UNL A   1      21.303  80.045  95.839  0.00  0.00    +0.048 C 
ENDROOT
BRANCH   1   9
ATOM      9  O   UNL A   1      22.380  77.561  96.272  0.00  0.00    -0.486 OA
BRANCH   9  10
ATOM     10  C   UNL A   1      21.771  76.355  95.849  0.00  0.00    +0.282 C 
BRANCH  10  12
ATOM     11  C   UNL A   1      19.634  76.554  94.604  0.00  0.00    +0.067 C 
ATOM     12  C   UNL A   1      21.152  76.429  94.440  0.00  0.00    +0.096 C 
BRANCH  12  13
ATOM     13  N   UNL A   1      21.451  75.232  93.641  0.00  0.00    +0.223 N 
ATOM     14  H   UNL A   1      22.446  75.019  93.708  0.00  0.00    +0.200 HD
ATOM     15  H   UNL A   1      21.204  75.404  92.666  0.00  0.00    +0.200 HD
ATOM     16  H   UNL A   1      20.910  74.444  93.995  0.00  0.00    +0.200 HD
ENDBRANCH  12  13
ENDBRANCH  10  12
ENDBRANCH   9  10
ENDBRANCH   1   9
TORSDOF 4
ENDMDL
MODEL 20
REMARK VINA RESULT:      -4.6      2.206      2.881
REMARK  Name = mexiletine.pdb
REMARK  7 active torsions:
REMARK  status: ('A' for Active; 'I' for Inactive)
REMARK    1  A    between atoms: N_1  and  C_12
REMARK    2  A    between atoms: C_2  and  O_13
REMARK    3  A    between atoms: C_3  and  C_4
REMARK    4  A    between atoms: C_8  and  C_9
REMARK    5  A    between atoms: C_10  and  C_12
REMARK    6  A    between atoms: C_10  and  O_13
REMARK    7  A    between atoms: C_11  and  C_12
REMARK                            x       y       z     vdW  Elec       q    Type
REMARK                         _______ _______ _______ _____ _____    ______ ____
ROOT
ATOM      1  C   UNL A   1      23.113  78.041  93.624  0.00  0.00    +0.127 A 
ATOM      2  C   UNL A   1      23.230  76.750  94.194  0.00  0.00    -0.009 A 
ATOM      3  C   UNL A   1      22.168  75.692  94.374  0.00  0.00    +0.048 C 
ATOM      4  C   UNL A   1      24.475  76.373  94.754  0.00  0.00    +0.007 A 
ATOM      5  C   UNL A   1      25.581  77.209  94.723  0.00  0.00    +0.001 A 
ATOM      6  C   UNL A   1      25.477  78.456  94.131  0.00  0.00    +0.007 A 
ATOM      7  C   UNL A   1      24.257  78.885  93.582  0.00  0.00    -0.009 A 
ATOM      8  C   UNL A   1      24.211  80.257  92.957  0.00  0.00    +0.048 C 
ENDROOT
BRANCH   1   9
ATOM      9  O   UNL A   1      21.992  78.654  93.093  0.00  0.00    -0.486 OA
BRANCH   9  10
ATOM     10  C   UNL A   1      21.468  78.128  91.888  0.00  0.00    +0.282 C 
BRANCH  10  12
ATOM     11  C   UNL A   1      20.867  80.390  91.067  0.00  0.00    +0.067 C 
ATOM     12  C   UNL A   1      21.577  79.087  90.688  0.00  0.00    +0.096 C 
BRANCH  12  13
ATOM     13  N   UNL A   1      20.951  78.534  89.479  0.00  0.00    +0.223 N 
ATOM     14  H   UNL A   1      20.824  77.529  89.591  0.00  0.00    +0.200 HD
ATOM     15  H   UNL A   1      21.551  78.714  88.673  0.00  0.00    +0.200 HD
ATOM     16  H   UNL A   1      20.044  78.977  89.333  0.00  0.00    +0.200 HD
ENDBRANCH  12  13
ENDBRANCH  10  12
ENDBRANCH   9  10
ENDBRANCH   1   9
TORSDOF 4
ENDMDL
