MODEL 1
REMARK VINA RESULT:      -6.0      0.000      0.000
REMARK  Name = mexiletine.pdb
REMARK  7 active torsions:
REMARK  status: ('A' for Active; 'I' for Inactive)
REMARK    1  A    between atoms: N_1  and  C_12
REMARK    2  A    between atoms: C_2  and  O_13
REMARK    3  A    between atoms: C_3  and  C_4
REMARK    4  A    between atoms: C_8  and  C_9
REMARK    5  A    between atoms: C_10  and  C_12
REMARK    6  A    between atoms: C_10  and  O_13
REMARK    7  A    between atoms: C_11  and  C_12
REMARK                            x       y       z     vdW  Elec       q    Type
REMARK                         _______ _______ _______ _____ _____    ______ ____
ROOT
ATOM      1  C   UNL A   1      79.535  84.003 104.668  0.00  0.00    +0.127 A 
ATOM      2  C   UNL A   1      78.382  84.479 103.996  0.00  0.00    -0.009 A 
ATOM      3  C   UNL A   1      77.183  85.199 104.564  0.00  0.00    +0.048 C 
ATOM      4  C   UNL A   1      78.251  84.207 102.613  0.00  0.00    +0.007 A 
ATOM      5  C   UNL A   1      79.227  83.531 101.898  0.00  0.00    +0.001 A 
ATOM      6  C   UNL A   1      80.371  83.099 102.547  0.00  0.00    +0.007 A 
ATOM      7  C   UNL A   1      80.538  83.323 103.923  0.00  0.00    -0.009 A 
ATOM      8  C   UNL A   1      81.806  82.823 104.568  0.00  0.00    +0.048 C 
ENDROOT
BRANCH   1   9
ATOM      9  O   UNL A   1      79.843  84.077 106.015  0.00  0.00    -0.486 OA
BRANCH   9  10
ATOM     10  C   UNL A   1      78.874  83.608 106.933  0.00  0.00    +0.282 C 
BRANCH  10  12
ATOM     11  C   UNL A   1      80.620  82.157 107.934  0.00  0.00    +0.067 C 
ATOM     12  C   UNL A   1      79.159  82.195 107.476  0.00  0.00    +0.096 C 
BRANCH  12  13
ATOM     13  N   UNL A   1      78.948  81.157 106.457  0.00  0.00    +0.223 N 
ATOM     14  H   UNL A   1      79.728  80.501 106.474  0.00  0.00    +0.200 HD
ATOM     15  H   UNL A   1      78.890  81.592 105.536  0.00  0.00    +0.200 HD
ATOM     16  H   UNL A   1      78.080  80.660 106.654  0.00  0.00    +0.200 HD
ENDBRANCH  12  13
ENDBRANCH  10  12
ENDBRANCH   9  10
ENDBRANCH   1   9
TORSDOF 4
ENDMDL
MODEL 2
REMARK VINA RESULT:      -6.0      0.648      2.611
REMARK  Name = mexiletine.pdb
REMARK  7 active torsions:
REMARK  status: ('A' for Active; 'I' for Inactive)
REMARK    1  A    between atoms: N_1  and  C_12
REMARK    2  A    between atoms: C_2  and  O_13
REMARK    3  A    between atoms: C_3  and  C_4
REMARK    4  A    between atoms: C_8  and  C_9
REMARK    5  A    between atoms: C_10  and  C_12
REMARK    6  A    between atoms: C_10  and  O_13
REMARK    7  A    between atoms: C_11  and  C_12
REMARK                            x       y       z     vdW  Elec       q    Type
REMARK                         _______ _______ _______ _____ _____    ______ ____
ROOT
ATOM      1  C   UNL A   1      79.617  84.030 104.669  0.00  0.00    +0.127 A 
ATOM      2  C   UNL A   1      80.605  83.304 103.960  0.00  0.00    -0.009 A 
ATOM      3  C   UNL A   1      81.928  82.770 104.454  0.00  0.00    +0.048 C 
ATOM      4  C   UNL A   1      80.410  83.079 102.576  0.00  0.00    +0.007 A 
ATOM      5  C   UNL A   1      79.272  83.511 101.912  0.00  0.00    +0.001 A 
ATOM      6  C   UNL A   1      78.289  84.188 102.613  0.00  0.00    +0.007 A 
ATOM      7  C   UNL A   1      78.446  84.456 103.983  0.00  0.00    -0.009 A 
ATOM      8  C   UNL A   1      77.340  85.201 104.685  0.00  0.00    +0.048 C 
ENDROOT
BRANCH   1   9
ATOM      9  O   UNL A   1      79.624  84.436 105.992  0.00  0.00    -0.486 OA
BRANCH   9  10
ATOM     10  C   UNL A   1      79.581  83.427 106.984  0.00  0.00    +0.282 C 
BRANCH  10  12
ATOM     11  C   UNL A   1      77.571  82.421 108.035  0.00  0.00    +0.067 C 
ATOM     12  C   UNL A   1      78.452  82.399 106.782  0.00  0.00    +0.096 C 
BRANCH  12  13
ATOM     13  N   UNL A   1      78.970  81.039 106.583  0.00  0.00    +0.223 N 
ATOM     14  H   UNL A   1      78.288  80.488 106.064  0.00  0.00    +0.200 HD
ATOM     15  H   UNL A   1      79.140  80.604 107.490  0.00  0.00    +0.200 HD
ATOM     16  H   UNL A   1      79.843  81.082 106.057  0.00  0.00    +0.200 HD
ENDBRANCH  12  13
ENDBRANCH  10  12
ENDBRANCH   9  10
ENDBRANCH   1   9
TORSDOF 4
ENDMDL
MODEL 3
REMARK VINA RESULT:      -5.8      1.222      2.834
REMARK  Name = mexiletine.pdb
REMARK  7 active torsions:
REMARK  status: ('A' for Active; 'I' for Inactive)
REMARK    1  A    between atoms: N_1  and  C_12
REMARK    2  A    between atoms: C_2  and  O_13
REMARK    3  A    between atoms: C_3  and  C_4
REMARK    4  A    between atoms: C_8  and  C_9
REMARK    5  A    between atoms: C_10  and  C_12
REMARK    6  A    between atoms: C_10  and  O_13
REMARK    7  A    between atoms: C_11  and  C_12
REMARK                            x       y       z     vdW  Elec       q    Type
REMARK                         _______ _______ _______ _____ _____    ______ ____
ROOT
ATOM      1  C   UNL A   1      79.638  84.297 104.681  0.00  0.00    +0.127 A 
ATOM      2  C   UNL A   1      80.609  83.430 104.124  0.00  0.00    -0.009 A 
ATOM      3  C   UNL A   1      81.907  82.946 104.724  0.00  0.00    +0.048 C 
ATOM      4  C   UNL A   1      80.423  82.980 102.794  0.00  0.00    +0.007 A 
ATOM      5  C   UNL A   1      79.309  83.329 102.046  0.00  0.00    +0.001 A 
ATOM      6  C   UNL A   1      78.341  84.146 102.605  0.00  0.00    +0.007 A 
ATOM      7  C   UNL A   1      78.491  84.637 103.912  0.00  0.00    -0.009 A 
ATOM      8  C   UNL A   1      77.402  85.526 104.458  0.00  0.00    +0.048 C 
ENDROOT
BRANCH   1   9
ATOM      9  O   UNL A   1      79.643  84.921 105.917  0.00  0.00    -0.486 OA
BRANCH   9  10
ATOM     10  C   UNL A   1      79.424  84.112 107.057  0.00  0.00    +0.282 C 
BRANCH  10  12
ATOM     11  C   UNL A   1      78.128  84.294 109.165  0.00  0.00    +0.067 C 
ATOM     12  C   UNL A   1      78.003  84.226 107.640  0.00  0.00    +0.096 C 
BRANCH  12  13
ATOM     13  N   UNL A   1      77.163  83.076 107.279  0.00  0.00    +0.223 N 
ATOM     14  H   UNL A   1      77.383  82.289 107.889  0.00  0.00    +0.200 HD
ATOM     15  H   UNL A   1      77.342  82.815 106.309  0.00  0.00    +0.200 HD
ATOM     16  H   UNL A   1      76.180  83.326 107.387  0.00  0.00    +0.200 HD
ENDBRANCH  12  13
ENDBRANCH  10  12
ENDBRANCH   9  10
ENDBRANCH   1   9
TORSDOF 4
ENDMDL
MODEL 4
REMARK VINA RESULT:      -5.7      1.224      1.320
REMARK  Name = mexiletine.pdb
REMARK  7 active torsions:
REMARK  status: ('A' for Active; 'I' for Inactive)
REMARK    1  A    between atoms: N_1  and  C_12
REMARK    2  A    between atoms: C_2  and  O_13
REMARK    3  A    between atoms: C_3  and  C_4
REMARK    4  A    between atoms: C_8  and  C_9
REMARK    5  A    between atoms: C_10  and  C_12
REMARK    6  A    between atoms: C_10  and  O_13
REMARK    7  A    between atoms: C_11  and  C_12
REMARK                            x       y       z     vdW  Elec       q    Type
REMARK                         _______ _______ _______ _____ _____    ______ ____
ROOT
ATOM      1  C   UNL A   1      79.653  83.828 104.772  0.00  0.00    +0.127 A 
ATOM      2  C   UNL A   1      78.442  84.327 104.233  0.00  0.00    -0.009 A 
ATOM      3  C   UNL A   1      77.269  84.951 104.951  0.00  0.00    +0.048 C 
ATOM      4  C   UNL A   1      78.215  84.183 102.843  0.00  0.00    +0.007 A 
ATOM      5  C   UNL A   1      79.154  83.609 101.998  0.00  0.00    +0.001 A 
ATOM      6  C   UNL A   1      80.353  83.155 102.520  0.00  0.00    +0.007 A 
ATOM      7  C   UNL A   1      80.615  83.255 103.896  0.00  0.00    -0.009 A 
ATOM      8  C   UNL A   1      81.940  82.738 104.398  0.00  0.00    +0.048 C 
ENDROOT
BRANCH   1   9
ATOM      9  O   UNL A   1      80.058  83.785 106.095  0.00  0.00    -0.486 OA
BRANCH   9  10
ATOM     10  C   UNL A   1      79.533  82.750 106.905  0.00  0.00    +0.282 C 
BRANCH  10  12
ATOM     11  C   UNL A   1      79.626  84.520 108.641  0.00  0.00    +0.067 C 
ATOM     12  C   UNL A   1      79.677  83.006 108.417  0.00  0.00    +0.096 C 
BRANCH  12  13
ATOM     13  N   UNL A   1      80.944  82.485 108.949  0.00  0.00    +0.223 N 
ATOM     14  H   UNL A   1      81.392  81.898 108.245  0.00  0.00    +0.200 HD
ATOM     15  H   UNL A   1      80.759  81.931 109.786  0.00  0.00    +0.200 HD
ATOM     16  H   UNL A   1      81.559  83.263 109.184  0.00  0.00    +0.200 HD
ENDBRANCH  12  13
ENDBRANCH  10  12
ENDBRANCH   9  10
ENDBRANCH   1   9
TORSDOF 4
ENDMDL
MODEL 5
REMARK VINA RESULT:      -5.6      1.235      2.773
REMARK  Name = mexiletine.pdb
REMARK  7 active torsions:
REMARK  status: ('A' for Active; 'I' for Inactive)
REMARK    1  A    between atoms: N_1  and  C_12
REMARK    2  A    between atoms: C_2  and  O_13
REMARK    3  A    between atoms: C_3  and  C_4
REMARK    4  A    between atoms: C_8  and  C_9
REMARK    5  A    between atoms: C_10  and  C_12
REMARK    6  A    between atoms: C_10  and  O_13
REMARK    7  A    between atoms: C_11  and  C_12
REMARK                            x       y       z     vdW  Elec       q    Type
REMARK                         _______ _______ _______ _____ _____    ______ ____
ROOT
ATOM      1  C   UNL A   1      79.623  83.656 104.748  0.00  0.00    +0.127 A 
ATOM      2  C   UNL A   1      80.700  83.145 103.984  0.00  0.00    -0.009 A 
ATOM      3  C   UNL A   1      82.064  82.695 104.447  0.00  0.00    +0.048 C 
ATOM      4  C   UNL A   1      80.559  83.094 102.575  0.00  0.00    +0.007 A 
ATOM      5  C   UNL A   1      79.393  83.487 101.936  0.00  0.00    +0.001 A 
ATOM      6  C   UNL A   1      78.327  83.951 102.687  0.00  0.00    +0.007 A 
ATOM      7  C   UNL A   1      78.426  84.043 104.085  0.00  0.00    -0.009 A 
ATOM      8  C   UNL A   1      77.228  84.560 104.842  0.00  0.00    +0.048 C 
ENDROOT
BRANCH   1   9
ATOM      9  O   UNL A   1      79.558  83.874 106.113  0.00  0.00    -0.486 OA
BRANCH   9  10
ATOM     10  C   UNL A   1      79.391  82.743 106.948  0.00  0.00    +0.282 C 
BRANCH  10  12
ATOM     11  C   UNL A   1      79.593  84.544 108.642  0.00  0.00    +0.067 C 
ATOM     12  C   UNL A   1      79.638  83.026 108.442  0.00  0.00    +0.096 C 
BRANCH  12  13
ATOM     13  N   UNL A   1      80.942  82.521 108.892  0.00  0.00    +0.223 N 
ATOM     14  H   UNL A   1      80.896  81.509 109.001  0.00  0.00    +0.200 HD
ATOM     15  H   UNL A   1      81.182  82.949 109.787  0.00  0.00    +0.200 HD
ATOM     16  H   UNL A   1      81.655  82.757 108.201  0.00  0.00    +0.200 HD
ENDBRANCH  12  13
ENDBRANCH  10  12
ENDBRANCH   9  10
ENDBRANCH   1   9
TORSDOF 4
ENDMDL
MODEL 6
REMARK VINA RESULT:      -5.5      7.028      9.128
REMARK  Name = mexiletine.pdb
REMARK  7 active torsions:
REMARK  status: ('A' for Active; 'I' for Inactive)
REMARK    1  A    between atoms: N_1  and  C_12
REMARK    2  A    between atoms: C_2  and  O_13
REMARK    3  A    between atoms: C_3  and  C_4
REMARK    4  A    between atoms: C_8  and  C_9
REMARK    5  A    between atoms: C_10  and  C_12
REMARK    6  A    between atoms: C_10  and  O_13
REMARK    7  A    between atoms: C_11  and  C_12
REMARK                            x       y       z     vdW  Elec       q    Type
REMARK                         _______ _______ _______ _____ _____    ______ ____
ROOT
ATOM      1  C   UNL A   1      80.199  86.250 112.177  0.00  0.00    +0.127 A 
ATOM      2  C   UNL A   1      79.585  85.325 111.299  0.00  0.00    -0.009 A 
ATOM      3  C   UNL A   1      80.098  84.774 109.990  0.00  0.00    +0.048 C 
ATOM      4  C   UNL A   1      78.278  84.874 111.605  0.00  0.00    +0.007 A 
ATOM      5  C   UNL A   1      77.607  85.279 112.749  0.00  0.00    +0.001 A 
ATOM      6  C   UNL A   1      78.223  86.154 113.626  0.00  0.00    +0.007 A 
ATOM      7  C   UNL A   1      79.510  86.648 113.356  0.00  0.00    -0.009 A 
ATOM      8  C   UNL A   1      80.121  87.602 114.351  0.00  0.00    +0.048 C 
ENDROOT
BRANCH   1   9
ATOM      9  O   UNL A   1      81.423  86.884 112.048  0.00  0.00    -0.486 OA
BRANCH   9  10
ATOM     10  C   UNL A   1      82.572  86.177 112.475  0.00  0.00    +0.282 C 
BRANCH  10  12
ATOM     11  C   UNL A   1      83.735  86.751 114.590  0.00  0.00    +0.067 C 
ATOM     12  C   UNL A   1      83.662  87.072 113.095  0.00  0.00    +0.096 C 
BRANCH  12  13
ATOM     13  N   UNL A   1      83.368  88.501 112.924  0.00  0.00    +0.223 N 
ATOM     14  H   UNL A   1      83.664  88.801 111.995  0.00  0.00    +0.200 HD
ATOM     15  H   UNL A   1      83.870  89.039 113.631  0.00  0.00    +0.200 HD
ATOM     16  H   UNL A   1      82.366  88.656 113.027  0.00  0.00    +0.200 HD
ENDBRANCH  12  13
ENDBRANCH  10  12
ENDBRANCH   9  10
ENDBRANCH   1   9
TORSDOF 4
ENDMDL
MODEL 7
REMARK VINA RESULT:      -5.4      7.477     10.147
REMARK  Name = mexiletine.pdb
REMARK  7 active torsions:
REMARK  status: ('A' for Active; 'I' for Inactive)
REMARK    1  A    between atoms: N_1  and  C_12
REMARK    2  A    between atoms: C_2  and  O_13
REMARK    3  A    between atoms: C_3  and  C_4
REMARK    4  A    between atoms: C_8  and  C_9
REMARK    5  A    between atoms: C_10  and  C_12
REMARK    6  A    between atoms: C_10  and  O_13
REMARK    7  A    between atoms: C_11  and  C_12
REMARK                            x       y       z     vdW  Elec       q    Type
REMARK                         _______ _______ _______ _____ _____    ______ ____
ROOT
ATOM      1  C   UNL A   1      82.710  86.843 113.340  0.00  0.00    +0.127 A 
ATOM      2  C   UNL A   1      83.988  87.435 113.195  0.00  0.00    -0.009 A 
ATOM      3  C   UNL A   1      84.538  88.235 112.038  0.00  0.00    +0.048 C 
ATOM      4  C   UNL A   1      84.947  87.221 114.214  0.00  0.00    +0.007 A 
ATOM      5  C   UNL A   1      84.659  86.489 115.356  0.00  0.00    +0.001 A 
ATOM      6  C   UNL A   1      83.398  85.941 115.515  0.00  0.00    +0.007 A 
ATOM      7  C   UNL A   1      82.419  86.106 114.521  0.00  0.00    -0.009 A 
ATOM      8  C   UNL A   1      81.067  85.480 114.756  0.00  0.00    +0.048 C 
ENDROOT
BRANCH   1   9
ATOM      9  O   UNL A   1      81.649  86.846 112.451  0.00  0.00    -0.486 OA
BRANCH   9  10
ATOM     10  C   UNL A   1      81.850  86.233 111.191  0.00  0.00    +0.282 C 
BRANCH  10  12
ATOM     11  C   UNL A   1      79.550  85.355 111.498  0.00  0.00    +0.067 C 
ATOM     12  C   UNL A   1      80.933  85.023 110.931  0.00  0.00    +0.096 C 
BRANCH  12  13
ATOM     13  N   UNL A   1      81.435  83.800 111.574  0.00  0.00    +0.223 N 
ATOM     14  H   UNL A   1      82.454  83.812 111.579  0.00  0.00    +0.200 HD
ATOM     15  H   UNL A   1      81.106  82.985 111.057  0.00  0.00    +0.200 HD
ATOM     16  H   UNL A   1      81.091  83.756 112.533  0.00  0.00    +0.200 HD
ENDBRANCH  12  13
ENDBRANCH  10  12
ENDBRANCH   9  10
ENDBRANCH   1   9
TORSDOF 4
ENDMDL
MODEL 8
REMARK VINA RESULT:      -5.4      2.022      4.573
REMARK  Name = mexiletine.pdb
REMARK  7 active torsions:
REMARK  status: ('A' for Active; 'I' for Inactive)
REMARK    1  A    between atoms: N_1  and  C_12
REMARK    2  A    between atoms: C_2  and  O_13
REMARK    3  A    between atoms: C_3  and  C_4
REMARK    4  A    between atoms: C_8  and  C_9
REMARK    5  A    between atoms: C_10  and  C_12
REMARK    6  A    between atoms: C_10  and  O_13
REMARK    7  A    between atoms: C_11  and  C_12
REMARK                            x       y       z     vdW  Elec       q    Type
REMARK                         _______ _______ _______ _____ _____    ______ ____
ROOT
ATOM      1  C   UNL A   1      78.702  84.957 106.553  0.00  0.00    +0.127 A 
ATOM      2  C   UNL A   1      78.567  84.707 107.941  0.00  0.00    -0.009 A 
ATOM      3  C   UNL A   1      79.608  84.231 108.926  0.00  0.00    +0.048 C 
ATOM      4  C   UNL A   1      77.284  84.839 108.525  0.00  0.00    +0.007 A 
ATOM      5  C   UNL A   1      76.177  85.239 107.792  0.00  0.00    +0.001 A 
ATOM      6  C   UNL A   1      76.317  85.519 106.444  0.00  0.00    +0.007 A 
ATOM      7  C   UNL A   1      77.564  85.381 105.813  0.00  0.00    -0.009 A 
ATOM      8  C   UNL A   1      77.646  85.698 104.341  0.00  0.00    +0.048 C 
ENDROOT
BRANCH   1   9
ATOM      9  O   UNL A   1      79.824  84.819 105.755  0.00  0.00    -0.486 OA
BRANCH   9  10
ATOM     10  C   UNL A   1      80.256  83.505 105.457  0.00  0.00    +0.282 C 
BRANCH  10  12
ATOM     11  C   UNL A   1      80.532  82.937 103.057  0.00  0.00    +0.067 C 
ATOM     12  C   UNL A   1      81.275  83.428 104.303  0.00  0.00    +0.096 C 
BRANCH  12  13
ATOM     13  N   UNL A   1      82.378  82.504 104.600  0.00  0.00    +0.223 N 
ATOM     14  H   UNL A   1      83.169  82.713 103.991  0.00  0.00    +0.200 HD
ATOM     15  H   UNL A   1      82.070  81.545 104.440  0.00  0.00    +0.200 HD
ATOM     16  H   UNL A   1      82.660  82.613 105.573  0.00  0.00    +0.200 HD
ENDBRANCH  12  13
ENDBRANCH  10  12
ENDBRANCH   9  10
ENDBRANCH   1   9
TORSDOF 4
ENDMDL
MODEL 9
REMARK VINA RESULT:      -5.4      2.543      4.714
REMARK  Name = mexiletine.pdb
REMARK  7 active torsions:
REMARK  status: ('A' for Active; 'I' for Inactive)
REMARK    1  A    between atoms: N_1  and  C_12
REMARK    2  A    between atoms: C_2  and  O_13
REMARK    3  A    between atoms: C_3  and  C_4
REMARK    4  A    between atoms: C_8  and  C_9
REMARK    5  A    between atoms: C_10  and  C_12
REMARK    6  A    between atoms: C_10  and  O_13
REMARK    7  A    between atoms: C_11  and  C_12
REMARK                            x       y       z     vdW  Elec       q    Type
REMARK                         _______ _______ _______ _____ _____    ______ ____
ROOT
ATOM      1  C   UNL A   1      77.351  84.970 107.283  0.00  0.00    +0.127 A 
ATOM      2  C   UNL A   1      76.651  85.016 108.513  0.00  0.00    -0.009 A 
ATOM      3  C   UNL A   1      76.978  84.332 109.819  0.00  0.00    +0.048 C 
ATOM      4  C   UNL A   1      75.429  85.731 108.564  0.00  0.00    +0.007 A 
ATOM      5  C   UNL A   1      74.927  86.413 107.466  0.00  0.00    +0.001 A 
ATOM      6  C   UNL A   1      75.631  86.398 106.274  0.00  0.00    +0.007 A 
ATOM      7  C   UNL A   1      76.836  85.685 106.167  0.00  0.00    -0.009 A 
ATOM      8  C   UNL A   1      77.551  85.707 104.839  0.00  0.00    +0.048 C 
ENDROOT
BRANCH   1   9
ATOM      9  O   UNL A   1      78.510  84.279 106.973  0.00  0.00    -0.486 OA
BRANCH   9  10
ATOM     10  C   UNL A   1      78.486  82.871 107.110  0.00  0.00    +0.282 C 
BRANCH  10  12
ATOM     11  C   UNL A   1      79.656  82.811 104.922  0.00  0.00    +0.067 C 
ATOM     12  C   UNL A   1      78.592  82.112 105.773  0.00  0.00    +0.096 C 
BRANCH  12  13
ATOM     13  N   UNL A   1      77.319  82.103 105.039  0.00  0.00    +0.223 N 
ATOM     14  H   UNL A   1      77.345  81.378 104.323  0.00  0.00    +0.200 HD
ATOM     15  H   UNL A   1      77.175  83.012 104.598  0.00  0.00    +0.200 HD
ATOM     16  H   UNL A   1      76.555  81.914 105.687  0.00  0.00    +0.200 HD
ENDBRANCH  12  13
ENDBRANCH  10  12
ENDBRANCH   9  10
ENDBRANCH   1   9
TORSDOF 4
ENDMDL
MODEL 10
REMARK VINA RESULT:      -5.3     10.514     11.607
REMARK  Name = mexiletine.pdb
REMARK  7 active torsions:
REMARK  status: ('A' for Active; 'I' for Inactive)
REMARK    1  A    between atoms: N_1  and  C_12
REMARK    2  A    between atoms: C_2  and  O_13
REMARK    3  A    between atoms: C_3  and  C_4
REMARK    4  A    between atoms: C_8  and  C_9
REMARK    5  A    between atoms: C_10  and  C_12
REMARK    6  A    between atoms: C_10  and  O_13
REMARK    7  A    between atoms: C_11  and  C_12
REMARK                            x       y       z     vdW  Elec       q    Type
REMARK                         _______ _______ _______ _____ _____    ______ ____
ROOT
ATOM      1  C   UNL A   1      85.361  75.532 108.902  0.00  0.00    +0.127 A 
ATOM      2  C   UNL A   1      84.236  74.785 108.476  0.00  0.00    -0.009 A 
ATOM      3  C   UNL A   1      84.129  73.793 107.343  0.00  0.00    +0.048 C 
ATOM      4  C   UNL A   1      82.996  75.012 109.120  0.00  0.00    +0.007 A 
ATOM      5  C   UNL A   1      82.863  75.907 110.171  0.00  0.00    +0.001 A 
ATOM      6  C   UNL A   1      83.971  76.609 110.613  0.00  0.00    +0.007 A 
ATOM      7  C   UNL A   1      85.219  76.436 109.992  0.00  0.00    -0.009 A 
ATOM      8  C   UNL A   1      86.384  77.234 110.520  0.00  0.00    +0.048 C 
ENDROOT
BRANCH   1   9
ATOM      9  O   UNL A   1      86.643  75.540 108.380  0.00  0.00    -0.486 OA
BRANCH   9  10
ATOM     10  C   UNL A   1      87.426  74.374 108.554  0.00  0.00    +0.282 C 
BRANCH  10  12
ATOM     11  C   UNL A   1      87.860  74.926 106.174  0.00  0.00    +0.067 C 
ATOM     12  C   UNL A   1      88.096  73.873 107.261  0.00  0.00    +0.096 C 
BRANCH  12  13
ATOM     13  N   UNL A   1      87.541  72.588 106.812  0.00  0.00    +0.223 N 
ATOM     14  H   UNL A   1      87.965  72.327 105.923  0.00  0.00    +0.200 HD
ATOM     15  H   UNL A   1      86.531  72.676 106.695  0.00  0.00    +0.200 HD
ATOM     16  H   UNL A   1      87.741  71.870 107.509  0.00  0.00    +0.200 HD
ENDBRANCH  12  13
ENDBRANCH  10  12
ENDBRANCH   9  10
ENDBRANCH   1   9
TORSDOF 4
ENDMDL
MODEL 11
REMARK VINA RESULT:      -5.3      1.974      4.226
REMARK  Name = mexiletine.pdb
REMARK  7 active torsions:
REMARK  status: ('A' for Active; 'I' for Inactive)
REMARK    1  A    between atoms: N_1  and  C_12
REMARK    2  A    between atoms: C_2  and  O_13
REMARK    3  A    between atoms: C_3  and  C_4
REMARK    4  A    between atoms: C_8  and  C_9
REMARK    5  A    between atoms: C_10  and  C_12
REMARK    6  A    between atoms: C_10  and  O_13
REMARK    7  A    between atoms: C_11  and  C_12
REMARK                            x       y       z     vdW  Elec       q    Type
REMARK                         _______ _______ _______ _____ _____    ______ ____
ROOT
ATOM      1  C   UNL A   1      78.427  84.777 106.548  0.00  0.00    +0.127 A 
ATOM      2  C   UNL A   1      77.543  85.301 105.573  0.00  0.00    -0.009 A 
ATOM      3  C   UNL A   1      77.792  85.557 104.107  0.00  0.00    +0.048 C 
ATOM      4  C   UNL A   1      76.258  85.726 105.991  0.00  0.00    +0.007 A 
ATOM      5  C   UNL A   1      75.833  85.607 107.305  0.00  0.00    +0.001 A 
ATOM      6  C   UNL A   1      76.684  85.061 108.250  0.00  0.00    +0.007 A 
ATOM      7  C   UNL A   1      77.976  84.646 107.891  0.00  0.00    -0.009 A 
ATOM      8  C   UNL A   1      78.853  84.063 108.971  0.00  0.00    +0.048 C 
ENDROOT
BRANCH   1   9
ATOM      9  O   UNL A   1      79.743  84.375 106.396  0.00  0.00    -0.486 OA
BRANCH   9  10
ATOM     10  C   UNL A   1      79.984  83.205 105.638  0.00  0.00    +0.282 C 
BRANCH  10  12
ATOM     11  C   UNL A   1      80.366  83.016 103.193  0.00  0.00    +0.067 C 
ATOM     12  C   UNL A   1      81.030  83.390 104.522  0.00  0.00    +0.096 C 
BRANCH  12  13
ATOM     13  N   UNL A   1      82.211  82.539 104.724  0.00  0.00    +0.223 N 
ATOM     14  H   UNL A   1      82.245  82.230 105.695  0.00  0.00    +0.200 HD
ATOM     15  H   UNL A   1      83.054  83.070 104.505  0.00  0.00    +0.200 HD
ATOM     16  H   UNL A   1      82.153  81.726 104.111  0.00  0.00    +0.200 HD
ENDBRANCH  12  13
ENDBRANCH  10  12
ENDBRANCH   9  10
ENDBRANCH   1   9
TORSDOF 4
ENDMDL
MODEL 12
REMARK VINA RESULT:      -5.3      9.766     10.425
REMARK  Name = mexiletine.pdb
REMARK  7 active torsions:
REMARK  status: ('A' for Active; 'I' for Inactive)
REMARK    1  A    between atoms: N_1  and  C_12
REMARK    2  A    between atoms: C_2  and  O_13
REMARK    3  A    between atoms: C_3  and  C_4
REMARK    4  A    between atoms: C_8  and  C_9
REMARK    5  A    between atoms: C_10  and  C_12
REMARK    6  A    between atoms: C_10  and  O_13
REMARK    7  A    between atoms: C_11  and  C_12
REMARK                            x       y       z     vdW  Elec       q    Type
REMARK                         _______ _______ _______ _____ _____    ______ ____
ROOT
ATOM      1  C   UNL A   1      84.840  75.800 109.317  0.00  0.00    +0.127 A 
ATOM      2  C   UNL A   1      83.437  75.611 109.350  0.00  0.00    -0.009 A 
ATOM      3  C   UNL A   1      82.407  76.293 110.217  0.00  0.00    +0.048 C 
ATOM      4  C   UNL A   1      82.876  74.605 108.526  0.00  0.00    +0.007 A 
ATOM      5  C   UNL A   1      83.649  73.837 107.669  0.00  0.00    +0.001 A 
ATOM      6  C   UNL A   1      85.015  74.048 107.609  0.00  0.00    +0.007 A 
ATOM      7  C   UNL A   1      85.623  75.018 108.423  0.00  0.00    -0.009 A 
ATOM      8  C   UNL A   1      87.117  75.194 108.311  0.00  0.00    +0.048 C 
ENDROOT
BRANCH   1   9
ATOM      9  O   UNL A   1      85.616  76.657 110.078  0.00  0.00    -0.486 OA
BRANCH   9  10
ATOM     10  C   UNL A   1      85.178  77.997 110.203  0.00  0.00    +0.282 C 
BRANCH  10  12
ATOM     11  C   UNL A   1      85.140  78.562 112.619  0.00  0.00    +0.067 C 
ATOM     12  C   UNL A   1      85.900  78.790 111.309  0.00  0.00    +0.096 C 
BRANCH  12  13
ATOM     13  N   UNL A   1      85.940  80.230 111.021  0.00  0.00    +0.223 N 
ATOM     14  H   UNL A   1      85.145  80.688 111.467  0.00  0.00    +0.200 HD
ATOM     15  H   UNL A   1      85.895  80.377 110.013  0.00  0.00    +0.200 HD
ATOM     16  H   UNL A   1      86.807  80.625 111.384  0.00  0.00    +0.200 HD
ENDBRANCH  12  13
ENDBRANCH  10  12
ENDBRANCH   9  10
ENDBRANCH   1   9
TORSDOF 4
ENDMDL
MODEL 13
REMARK VINA RESULT:      -5.3     10.692     11.627
REMARK  Name = mexiletine.pdb
REMARK  7 active torsions:
REMARK  status: ('A' for Active; 'I' for Inactive)
REMARK    1  A    between atoms: N_1  and  C_12
REMARK    2  A    between atoms: C_2  and  O_13
REMARK    3  A    between atoms: C_3  and  C_4
REMARK    4  A    between atoms: C_8  and  C_9
REMARK    5  A    between atoms: C_10  and  C_12
REMARK    6  A    between atoms: C_10  and  O_13
REMARK    7  A    between atoms: C_11  and  C_12
REMARK                            x       y       z     vdW  Elec       q    Type
REMARK                         _______ _______ _______ _____ _____    ______ ____
ROOT
ATOM      1  C   UNL A   1      85.261  75.662 108.899  0.00  0.00    +0.127 A 
ATOM      2  C   UNL A   1      85.219  76.533 110.016  0.00  0.00    -0.009 A 
ATOM      3  C   UNL A   1      86.301  77.435 110.558  0.00  0.00    +0.048 C 
ATOM      4  C   UNL A   1      84.048  76.546 110.813  0.00  0.00    +0.007 A 
ATOM      5  C   UNL A   1      82.940  75.770 110.510  0.00  0.00    +0.001 A 
ATOM      6  C   UNL A   1      82.968  74.947 109.397  0.00  0.00    +0.007 A 
ATOM      7  C   UNL A   1      84.114  74.881 108.588  0.00  0.00    -0.009 A 
ATOM      8  C   UNL A   1      84.079  73.961 107.393  0.00  0.00    +0.048 C 
ENDROOT
BRANCH   1   9
ATOM      9  O   UNL A   1      86.311  75.420 108.031  0.00  0.00    -0.486 OA
BRANCH   9  10
ATOM     10  C   UNL A   1      87.331  74.541 108.468  0.00  0.00    +0.282 C 
BRANCH  10  12
ATOM     11  C   UNL A   1      88.063  74.774 106.109  0.00  0.00    +0.067 C 
ATOM     12  C   UNL A   1      88.085  73.840 107.322  0.00  0.00    +0.096 C 
BRANCH  12  13
ATOM     13  N   UNL A   1      87.465  72.560 106.954  0.00  0.00    +0.223 N 
ATOM     14  H   UNL A   1      86.729  72.333 107.622  0.00  0.00    +0.200 HD
ATOM     15  H   UNL A   1      88.172  71.824 106.963  0.00  0.00    +0.200 HD
ATOM     16  H   UNL A   1      87.063  72.633 106.019  0.00  0.00    +0.200 HD
ENDBRANCH  12  13
ENDBRANCH  10  12
ENDBRANCH   9  10
ENDBRANCH   1   9
TORSDOF 4
ENDMDL
MODEL 14
REMARK VINA RESULT:      -5.3      9.395     10.714
REMARK  Name = mexiletine.pdb
REMARK  7 active torsions:
REMARK  status: ('A' for Active; 'I' for Inactive)
REMARK    1  A    between atoms: N_1  and  C_12
REMARK    2  A    between atoms: C_2  and  O_13
REMARK    3  A    between atoms: C_3  and  C_4
REMARK    4  A    between atoms: C_8  and  C_9
REMARK    5  A    between atoms: C_10  and  C_12
REMARK    6  A    between atoms: C_10  and  O_13
REMARK    7  A    between atoms: C_11  and  C_12
REMARK                            x       y       z     vdW  Elec       q    Type
REMARK                         _______ _______ _______ _____ _____    ______ ____
ROOT
ATOM      1  C   UNL A   1      84.772  75.950 109.095  0.00  0.00    +0.127 A 
ATOM      2  C   UNL A   1      85.594  75.021 108.411  0.00  0.00    -0.009 A 
ATOM      3  C   UNL A   1      87.078  75.084 108.143  0.00  0.00    +0.048 C 
ATOM      4  C   UNL A   1      84.979  73.894 107.813  0.00  0.00    +0.007 A 
ATOM      5  C   UNL A   1      83.616  73.657 107.913  0.00  0.00    +0.001 A 
ATOM      6  C   UNL A   1      82.820  74.546 108.614  0.00  0.00    +0.007 A 
ATOM      7  C   UNL A   1      83.378  75.691 109.206  0.00  0.00    -0.009 A 
ATOM      8  C   UNL A   1      82.453  76.619 109.951  0.00  0.00    +0.048 C 
ENDROOT
BRANCH   1   9
ATOM      9  O   UNL A   1      85.129  77.151 109.684  0.00  0.00    -0.486 OA
BRANCH   9  10
ATOM     10  C   UNL A   1      85.871  77.092 110.887  0.00  0.00    +0.282 C 
BRANCH  10  12
ATOM     11  C   UNL A   1      84.599  77.374 112.999  0.00  0.00    +0.067 C 
ATOM     12  C   UNL A   1      85.426  78.118 111.947  0.00  0.00    +0.096 C 
BRANCH  12  13
ATOM     13  N   UNL A   1      84.609  79.194 111.367  0.00  0.00    +0.223 N 
ATOM     14  H   UNL A   1      84.806  80.069 111.851  0.00  0.00    +0.200 HD
ATOM     15  H   UNL A   1      83.621  78.963 111.470  0.00  0.00    +0.200 HD
ATOM     16  H   UNL A   1      84.834  79.294 110.377  0.00  0.00    +0.200 HD
ENDBRANCH  12  13
ENDBRANCH  10  12
ENDBRANCH   9  10
ENDBRANCH   1   9
TORSDOF 4
ENDMDL
MODEL 15
REMARK VINA RESULT:      -5.2      7.498      9.199
REMARK  Name = mexiletine.pdb
REMARK  7 active torsions:
REMARK  status: ('A' for Active; 'I' for Inactive)
REMARK    1  A    between atoms: N_1  and  C_12
REMARK    2  A    between atoms: C_2  and  O_13
REMARK    3  A    between atoms: C_3  and  C_4
REMARK    4  A    between atoms: C_8  and  C_9
REMARK    5  A    between atoms: C_10  and  C_12
REMARK    6  A    between atoms: C_10  and  O_13
REMARK    7  A    between atoms: C_11  and  C_12
REMARK                            x       y       z     vdW  Elec       q    Type
REMARK                         _______ _______ _______ _____ _____    ______ ____
ROOT
ATOM      1  C   UNL A   1      80.787  85.610 112.756  0.00  0.00    +0.127 A 
ATOM      2  C   UNL A   1      79.835  86.425 113.416  0.00  0.00    -0.009 A 
ATOM      3  C   UNL A   1      80.057  87.468 114.484  0.00  0.00    +0.048 C 
ATOM      4  C   UNL A   1      78.464  86.228 113.123  0.00  0.00    +0.007 A 
ATOM      5  C   UNL A   1      78.035  85.296 112.189  0.00  0.00    +0.001 A 
ATOM      6  C   UNL A   1      78.969  84.526 111.517  0.00  0.00    +0.007 A 
ATOM      7  C   UNL A   1      80.339  84.668 111.789  0.00  0.00    -0.009 A 
ATOM      8  C   UNL A   1      81.302  83.795 111.024  0.00  0.00    +0.048 C 
ENDROOT
BRANCH   1   9
ATOM      9  O   UNL A   1      82.159  85.565 112.933  0.00  0.00    -0.486 OA
BRANCH   9  10
ATOM     10  C   UNL A   1      82.904  86.707 112.552  0.00  0.00    +0.282 C 
BRANCH  10  12
ATOM     11  C   UNL A   1      83.602  86.398 114.912  0.00  0.00    +0.067 C 
ATOM     12  C   UNL A   1      83.819  87.255 113.662  0.00  0.00    +0.096 C 
BRANCH  12  13
ATOM     13  N   UNL A   1      83.520  88.657 113.984  0.00  0.00    +0.223 N 
ATOM     14  H   UNL A   1      82.595  88.898 113.630  0.00  0.00    +0.200 HD
ATOM     15  H   UNL A   1      84.218  89.262 113.551  0.00  0.00    +0.200 HD
ATOM     16  H   UNL A   1      83.540  88.785 114.996  0.00  0.00    +0.200 HD
ENDBRANCH  12  13
ENDBRANCH  10  12
ENDBRANCH   9  10
ENDBRANCH   1   9
TORSDOF 4
ENDMDL
MODEL 16
REMARK VINA RESULT:      -5.2      2.475      4.662
REMARK  Name = mexiletine.pdb
REMARK  7 active torsions:
REMARK  status: ('A' for Active; 'I' for Inactive)
REMARK    1  A    between atoms: N_1  and  C_12
REMARK    2  A    between atoms: C_2  and  O_13
REMARK    3  A    between atoms: C_3  and  C_4
REMARK    4  A    between atoms: C_8  and  C_9
REMARK    5  A    between atoms: C_10  and  C_12
REMARK    6  A    between atoms: C_10  and  O_13
REMARK    7  A    between atoms: C_11  and  C_12
REMARK                            x       y       z     vdW  Elec       q    Type
REMARK                         _______ _______ _______ _____ _____    ______ ____
ROOT
ATOM      1  C   UNL A   1      76.875  84.634 107.091  0.00  0.00    +0.127 A 
ATOM      2  C   UNL A   1      76.651  85.381 105.908  0.00  0.00    -0.009 A 
ATOM      3  C   UNL A   1      77.293  85.225 104.551  0.00  0.00    +0.048 C 
ATOM      4  C   UNL A   1      75.764  86.483 105.968  0.00  0.00    +0.007 A 
ATOM      5  C   UNL A   1      75.087  86.823 107.130  0.00  0.00    +0.001 A 
ATOM      6  C   UNL A   1      75.278  86.069 108.275  0.00  0.00    +0.007 A 
ATOM      7  C   UNL A   1      76.164  84.980 108.273  0.00  0.00    -0.009 A 
ATOM      8  C   UNL A   1      76.329  84.205 109.556  0.00  0.00    +0.048 C 
ENDROOT
BRANCH   1   9
ATOM      9  O   UNL A   1      77.745  83.577 107.294  0.00  0.00    -0.486 OA
BRANCH   9  10
ATOM     10  C   UNL A   1      79.130  83.836 107.157  0.00  0.00    +0.282 C 
BRANCH  10  12
ATOM     11  C   UNL A   1      80.429  83.386 105.091  0.00  0.00    +0.067 C 
ATOM     12  C   UNL A   1      79.894  82.749 106.377  0.00  0.00    +0.096 C 
BRANCH  12  13
ATOM     13  N   UNL A   1      79.034  81.610 106.028  0.00  0.00    +0.223 N 
ATOM     14  H   UNL A   1      78.445  81.861 105.234  0.00  0.00    +0.200 HD
ATOM     15  H   UNL A   1      78.445  81.371 106.826  0.00  0.00    +0.200 HD
ATOM     16  H   UNL A   1      79.615  80.809 105.781  0.00  0.00    +0.200 HD
ENDBRANCH  12  13
ENDBRANCH  10  12
ENDBRANCH   9  10
ENDBRANCH   1   9
TORSDOF 4
ENDMDL
MODEL 17
REMARK VINA RESULT:      -5.1      8.430     10.290
REMARK  Name = mexiletine.pdb
REMARK  7 active torsions:
REMARK  status: ('A' for Active; 'I' for Inactive)
REMARK    1  A    between atoms: N_1  and  C_12
REMARK    2  A    between atoms: C_2  and  O_13
REMARK    3  A    between atoms: C_3  and  C_4
REMARK    4  A    between atoms: C_8  and  C_9
REMARK    5  A    between atoms: C_10  and  C_12
REMARK    6  A    between atoms: C_10  and  O_13
REMARK    7  A    between atoms: C_11  and  C_12
REMARK                            x       y       z     vdW  Elec       q    Type
REMARK                         _______ _______ _______ _____ _____    ______ ____
ROOT
ATOM      1  C   UNL A   1      82.897  86.374 113.861  0.00  0.00    +0.127 A 
ATOM      2  C   UNL A   1      82.935  87.007 112.595  0.00  0.00    -0.009 A 
ATOM      3  C   UNL A   1      81.930  86.945 111.471  0.00  0.00    +0.048 C 
ATOM      4  C   UNL A   1      84.086  87.759 112.255  0.00  0.00    +0.007 A 
ATOM      5  C   UNL A   1      85.146  87.923 113.133  0.00  0.00    +0.001 A 
ATOM      6  C   UNL A   1      85.092  87.335 114.385  0.00  0.00    +0.007 A 
ATOM      7  C   UNL A   1      83.982  86.561 114.761  0.00  0.00    -0.009 A 
ATOM      8  C   UNL A   1      83.988  85.945 116.138  0.00  0.00    +0.048 C 
ENDROOT
BRANCH   1   9
ATOM      9  O   UNL A   1      81.926  85.534 114.379  0.00  0.00    -0.486 OA
BRANCH   9  10
ATOM     10  C   UNL A   1      80.606  86.037 114.465  0.00  0.00    +0.282 C 
BRANCH  10  12
ATOM     11  C   UNL A   1      78.340  86.102 113.457  0.00  0.00    +0.067 C 
ATOM     12  C   UNL A   1      79.572  85.218 113.670  0.00  0.00    +0.096 C 
BRANCH  12  13
ATOM     13  N   UNL A   1      79.169  83.997 114.381  0.00  0.00    +0.223 N 
ATOM     14  H   UNL A   1      79.968  83.368 114.458  0.00  0.00    +0.200 HD
ATOM     15  H   UNL A   1      78.420  83.534 113.865  0.00  0.00    +0.200 HD
ATOM     16  H   UNL A   1      78.837  84.241 115.314  0.00  0.00    +0.200 HD
ENDBRANCH  12  13
ENDBRANCH  10  12
ENDBRANCH   9  10
ENDBRANCH   1   9
TORSDOF 4
ENDMDL
MODEL 18
REMARK VINA RESULT:      -5.1      9.944     10.816
REMARK  Name = mexiletine.pdb
REMARK  7 active torsions:
REMARK  status: ('A' for Active; 'I' for Inactive)
REMARK    1  A    between atoms: N_1  and  C_12
REMARK    2  A    between atoms: C_2  and  O_13
REMARK    3  A    between atoms: C_3  and  C_4
REMARK    4  A    between atoms: C_8  and  C_9
REMARK    5  A    between atoms: C_10  and  C_12
REMARK    6  A    between atoms: C_10  and  O_13
REMARK    7  A    between atoms: C_11  and  C_12
REMARK                            x       y       z     vdW  Elec       q    Type
REMARK                         _______ _______ _______ _____ _____    ______ ____
ROOT
ATOM      1  C   UNL A   1      84.533  75.679 109.214  0.00  0.00    +0.127 A 
ATOM      2  C   UNL A   1      84.334  74.639 108.274  0.00  0.00    -0.009 A 
ATOM      3  C   UNL A   1      83.041  74.016 107.806  0.00  0.00    +0.048 C 
ATOM      4  C   UNL A   1      85.475  74.011 107.715  0.00  0.00    +0.007 A 
ATOM      5  C   UNL A   1      86.765  74.410 108.031  0.00  0.00    +0.001 A 
ATOM      6  C   UNL A   1      86.958  75.452 108.922  0.00  0.00    +0.007 A 
ATOM      7  C   UNL A   1      85.860  76.091 109.520  0.00  0.00    -0.009 A 
ATOM      8  C   UNL A   1      86.140  77.215 110.485  0.00  0.00    +0.048 C 
ENDROOT
BRANCH   1   9
ATOM      9  O   UNL A   1      83.587  76.378 109.943  0.00  0.00    -0.486 OA
BRANCH   9  10
ATOM     10  C   UNL A   1      82.922  75.687 110.983  0.00  0.00    +0.282 C 
BRANCH  10  12
ATOM     11  C   UNL A   1      82.794  77.978 111.925  0.00  0.00    +0.067 C 
ATOM     12  C   UNL A   1      82.801  76.491 112.291  0.00  0.00    +0.096 C 
BRANCH  12  13
ATOM     13  N   UNL A   1      83.918  76.228 113.208  0.00  0.00    +0.223 N 
ATOM     14  H   UNL A   1      84.801  76.366 112.717  0.00  0.00    +0.200 HD
ATOM     15  H   UNL A   1      83.863  75.266 113.544  0.00  0.00    +0.200 HD
ATOM     16  H   UNL A   1      83.866  76.868 114.000  0.00  0.00    +0.200 HD
ENDBRANCH  12  13
ENDBRANCH  10  12
ENDBRANCH   9  10
ENDBRANCH   1   9
TORSDOF 4
ENDMDL
MODEL 19
REMARK VINA RESULT:      -5.1      8.928     10.418
REMARK  Name = mexiletine.pdb
REMARK  7 active torsions:
REMARK  status: ('A' for Active; 'I' for Inactive)
REMARK    1  A    between atoms: N_1  and  C_12
REMARK    2  A    between atoms: C_2  and  O_13
REMARK    3  A    between atoms: C_3  and  C_4
REMARK    4  A    between atoms: C_8  and  C_9
REMARK    5  A    between atoms: C_10  and  C_12
REMARK    6  A    between atoms: C_10  and  O_13
REMARK    7  A    between atoms: C_11  and  C_12
REMARK                            x       y       z     vdW  Elec       q    Type
REMARK                         _______ _______ _______ _____ _____    ______ ____
ROOT
ATOM      1  C   UNL A   1      84.400  75.719 109.452  0.00  0.00    +0.127 A 
ATOM      2  C   UNL A   1      85.796  75.956 109.509  0.00  0.00    -0.009 A 
ATOM      3  C   UNL A   1      86.565  76.886 110.416  0.00  0.00    +0.048 C 
ATOM      4  C   UNL A   1      86.626  75.311 108.560  0.00  0.00    +0.007 A 
ATOM      5  C   UNL A   1      86.119  74.433 107.614  0.00  0.00    +0.001 A 
ATOM      6  C   UNL A   1      84.760  74.173 107.583  0.00  0.00    +0.007 A 
ATOM      7  C   UNL A   1      83.893  74.805 108.488  0.00  0.00    -0.009 A 
ATOM      8  C   UNL A   1      82.423  74.480 108.397  0.00  0.00    +0.048 C 
ENDROOT
BRANCH   1   9
ATOM      9  O   UNL A   1      83.395  76.289 110.214  0.00  0.00    -0.486 OA
BRANCH   9  10
ATOM     10  C   UNL A   1      83.113  77.659 110.002  0.00  0.00    +0.282 C 
BRANCH  10  12
ATOM     11  C   UNL A   1      83.305  77.704 112.476  0.00  0.00    +0.067 C 
ATOM     12  C   UNL A   1      83.438  78.557 111.212  0.00  0.00    +0.096 C 
BRANCH  12  13
ATOM     13  N   UNL A   1      82.526  79.705 111.309  0.00  0.00    +0.223 N 
ATOM     14  H   UNL A   1      81.567  79.371 111.402  0.00  0.00    +0.200 HD
ATOM     15  H   UNL A   1      82.607  80.277 110.468  0.00  0.00    +0.200 HD
ATOM     16  H   UNL A   1      82.771  80.265 112.126  0.00  0.00    +0.200 HD
ENDBRANCH  12  13
ENDBRANCH  10  12
ENDBRANCH   9  10
ENDBRANCH   1   9
TORSDOF 4
ENDMDL
MODEL 20
REMARK VINA RESULT:      -5.0      1.185      1.558
REMARK  Name = mexiletine.pdb
REMARK  7 active torsions:
REMARK  status: ('A' for Active; 'I' for Inactive)
REMARK    1  A    between atoms: N_1  and  C_12
REMARK    2  A    between atoms: C_2  and  O_13
REMARK    3  A    between atoms: C_3  and  C_4
REMARK    4  A    between atoms: C_8  and  C_9
REMARK    5  A    between atoms: C_10  and  C_12
REMARK    6  A    between atoms: C_10  and  O_13
REMARK    7  A    between atoms: C_11  and  C_12
REMARK                            x       y       z     vdW  Elec       q    Type
REMARK                         _______ _______ _______ _____ _____    ______ ____
ROOT
ATOM      1  C   UNL A   1      79.351  84.127 105.583  0.00  0.00    +0.127 A 
ATOM      2  C   UNL A   1      78.071  84.725 105.480  0.00  0.00    -0.009 A 
ATOM      3  C   UNL A   1      77.183  85.260 106.577  0.00  0.00    +0.048 C 
ATOM      4  C   UNL A   1      77.462  84.792 104.204  0.00  0.00    +0.007 A 
ATOM      5  C   UNL A   1      78.094  84.330 103.059  0.00  0.00    +0.001 A 
ATOM      6  C   UNL A   1      79.361  83.780 103.155  0.00  0.00    +0.007 A 
ATOM      7  C   UNL A   1      79.998  83.670 104.402  0.00  0.00    -0.009 A 
ATOM      8  C   UNL A   1      81.375  83.056 104.436  0.00  0.00    +0.048 C 
ENDROOT
BRANCH   1   9
ATOM      9  O   UNL A   1      80.102  83.880 106.719  0.00  0.00    -0.486 OA
BRANCH   9  10
ATOM     10  C   UNL A   1      79.525  83.059 107.718  0.00  0.00    +0.282 C 
BRANCH  10  12
ATOM     11  C   UNL A   1      77.874  81.206 107.722  0.00  0.00    +0.067 C 
ATOM     12  C   UNL A   1      79.281  81.606 107.267  0.00  0.00    +0.096 C 
BRANCH  12  13
ATOM     13  N   UNL A   1      80.257  80.675 107.851  0.00  0.00    +0.223 N 
ATOM     14  H   UNL A   1      80.376  79.875 107.230  0.00  0.00    +0.200 HD
ATOM     15  H   UNL A   1      79.920  80.355 108.759  0.00  0.00    +0.200 HD
ATOM     16  H   UNL A   1      81.151  81.151 107.968  0.00  0.00    +0.200 HD
ENDBRANCH  12  13
ENDBRANCH  10  12
ENDBRANCH   9  10
ENDBRANCH   1   9
TORSDOF 4
ENDMDL
