MODEL 1
REMARK VINA RESULT:      -6.2      0.000      0.000
REMARK  Name = mexiletine.pdb
REMARK  7 active torsions:
REMARK  status: ('A' for Active; 'I' for Inactive)
REMARK    1  A    between atoms: N_1  and  C_12
REMARK    2  A    between atoms: C_2  and  O_13
REMARK    3  A    between atoms: C_3  and  C_4
REMARK    4  A    between atoms: C_8  and  C_9
REMARK    5  A    between atoms: C_10  and  C_12
REMARK    6  A    between atoms: C_10  and  O_13
REMARK    7  A    between atoms: C_11  and  C_12
REMARK                            x       y       z     vdW  Elec       q    Type
REMARK                         _______ _______ _______ _____ _____    ______ ____
ROOT
ATOM      1  C   UNL A   1      57.576  77.018  74.615  0.00  0.00    +0.127 A 
ATOM      2  C   UNL A   1      57.165  77.377  75.922  0.00  0.00    -0.009 A 
ATOM      3  C   UNL A   1      56.878  76.485  77.105  0.00  0.00    +0.048 C 
ATOM      4  C   UNL A   1      56.905  78.742  76.193  0.00  0.00    +0.007 A 
ATOM      5  C   UNL A   1      57.078  79.731  75.236  0.00  0.00    +0.001 A 
ATOM      6  C   UNL A   1      57.516  79.384  73.969  0.00  0.00    +0.007 A 
ATOM      7  C   UNL A   1      57.765  78.040  73.644  0.00  0.00    -0.009 A 
ATOM      8  C   UNL A   1      58.236  77.731  72.245  0.00  0.00    +0.048 C 
ENDROOT
BRANCH   1   9
ATOM      9  O   UNL A   1      57.810  75.756  74.097  0.00  0.00    -0.486 OA
BRANCH   9  10
ATOM     10  C   UNL A   1      58.966  75.072  74.542  0.00  0.00    +0.282 C 
BRANCH  10  12
ATOM     11  C   UNL A   1      57.860  73.017  73.699  0.00  0.00    +0.067 C 
ATOM     12  C   UNL A   1      58.737  73.575  74.824  0.00  0.00    +0.096 C 
BRANCH  12  13
ATOM     13  N   UNL A   1      58.065  73.350  76.111  0.00  0.00    +0.223 N 
ATOM     14  H   UNL A   1      57.254  73.963  76.183  0.00  0.00    +0.200 HD
ATOM     15  H   UNL A   1      58.713  73.553  76.873  0.00  0.00    +0.200 HD
ATOM     16  H   UNL A   1      57.764  72.378  76.172  0.00  0.00    +0.200 HD
ENDBRANCH  12  13
ENDBRANCH  10  12
ENDBRANCH   9  10
ENDBRANCH   1   9
TORSDOF 4
ENDMDL
MODEL 2
REMARK VINA RESULT:      -6.1     30.650     31.784
REMARK  Name = mexiletine.pdb
REMARK  7 active torsions:
REMARK  status: ('A' for Active; 'I' for Inactive)
REMARK    1  A    between atoms: N_1  and  C_12
REMARK    2  A    between atoms: C_2  and  O_13
REMARK    3  A    between atoms: C_3  and  C_4
REMARK    4  A    between atoms: C_8  and  C_9
REMARK    5  A    between atoms: C_10  and  C_12
REMARK    6  A    between atoms: C_10  and  O_13
REMARK    7  A    between atoms: C_11  and  C_12
REMARK                            x       y       z     vdW  Elec       q    Type
REMARK                         _______ _______ _______ _____ _____    ______ ____
ROOT
ATOM      1  C   UNL A   1      35.180  80.739  97.077  0.00  0.00    +0.127 A 
ATOM      2  C   UNL A   1      34.965  81.878  97.890  0.00  0.00    -0.009 A 
ATOM      3  C   UNL A   1      35.541  82.198  99.248  0.00  0.00    +0.048 C 
ATOM      4  C   UNL A   1      34.035  82.851  97.450  0.00  0.00    +0.007 A 
ATOM      5  C   UNL A   1      33.368  82.740  96.239  0.00  0.00    +0.001 A 
ATOM      6  C   UNL A   1      33.607  81.644  95.427  0.00  0.00    +0.007 A 
ATOM      7  C   UNL A   1      34.503  80.640  95.830  0.00  0.00    -0.009 A 
ATOM      8  C   UNL A   1      34.714  79.472  94.900  0.00  0.00    +0.048 C 
ENDROOT
BRANCH   1   9
ATOM      9  O   UNL A   1      35.971  79.632  97.331  0.00  0.00    -0.486 OA
BRANCH   9  10
ATOM     10  C   UNL A   1      37.373  79.820  97.344  0.00  0.00    +0.282 C 
BRANCH  10  12
ATOM     11  C   UNL A   1      38.341  79.677  99.624  0.00  0.00    +0.067 C 
ATOM     12  C   UNL A   1      38.119  78.896  98.326  0.00  0.00    +0.096 C 
BRANCH  12  13
ATOM     13  N   UNL A   1      39.419  78.462  97.798  0.00  0.00    +0.223 N 
ATOM     14  H   UNL A   1      39.287  77.654  97.190  0.00  0.00    +0.200 HD
ATOM     15  H   UNL A   1      40.033  78.208  98.573  0.00  0.00    +0.200 HD
ATOM     16  H   UNL A   1      39.841  79.222  97.266  0.00  0.00    +0.200 HD
ENDBRANCH  12  13
ENDBRANCH  10  12
ENDBRANCH   9  10
ENDBRANCH   1   9
TORSDOF 4
ENDMDL
MODEL 3
REMARK VINA RESULT:      -6.1     29.722     31.458
REMARK  Name = mexiletine.pdb
REMARK  7 active torsions:
REMARK  status: ('A' for Active; 'I' for Inactive)
REMARK    1  A    between atoms: N_1  and  C_12
REMARK    2  A    between atoms: C_2  and  O_13
REMARK    3  A    between atoms: C_3  and  C_4
REMARK    4  A    between atoms: C_8  and  C_9
REMARK    5  A    between atoms: C_10  and  C_12
REMARK    6  A    between atoms: C_10  and  O_13
REMARK    7  A    between atoms: C_11  and  C_12
REMARK                            x       y       z     vdW  Elec       q    Type
REMARK                         _______ _______ _______ _____ _____    ______ ____
ROOT
ATOM      1  C   UNL A   1      34.741  80.788  96.299  0.00  0.00    +0.127 A 
ATOM      2  C   UNL A   1      35.057  81.434  97.519  0.00  0.00    -0.009 A 
ATOM      3  C   UNL A   1      36.025  81.009  98.597  0.00  0.00    +0.048 C 
ATOM      4  C   UNL A   1      34.345  82.610  97.860  0.00  0.00    +0.007 A 
ATOM      5  C   UNL A   1      33.386  83.161  97.023  0.00  0.00    +0.001 A 
ATOM      6  C   UNL A   1      33.105  82.549  95.813  0.00  0.00    +0.007 A 
ATOM      7  C   UNL A   1      33.768  81.369  95.440  0.00  0.00    -0.009 A 
ATOM      8  C   UNL A   1      33.410  80.752  94.111  0.00  0.00    +0.048 C 
ENDROOT
BRANCH   1   9
ATOM      9  O   UNL A   1      35.240  79.599  95.796  0.00  0.00    -0.486 OA
BRANCH   9  10
ATOM     10  C   UNL A   1      36.561  79.609  95.287  0.00  0.00    +0.282 C 
BRANCH  10  12
ATOM     11  C   UNL A   1      36.395  77.166  95.687  0.00  0.00    +0.067 C 
ATOM     12  C   UNL A   1      37.372  78.345  95.628  0.00  0.00    +0.096 C 
BRANCH  12  13
ATOM     13  N   UNL A   1      38.062  78.461  96.919  0.00  0.00    +0.223 N 
ATOM     14  H   UNL A   1      37.374  78.537  97.667  0.00  0.00    +0.200 HD
ATOM     15  H   UNL A   1      38.653  79.293  96.915  0.00  0.00    +0.200 HD
ATOM     16  H   UNL A   1      38.640  77.635  97.071  0.00  0.00    +0.200 HD
ENDBRANCH  12  13
ENDBRANCH  10  12
ENDBRANCH   9  10
ENDBRANCH   1   9
TORSDOF 4
ENDMDL
MODEL 4
REMARK VINA RESULT:      -6.1     24.439     25.088
REMARK  Name = mexiletine.pdb
REMARK  7 active torsions:
REMARK  status: ('A' for Active; 'I' for Inactive)
REMARK    1  A    between atoms: N_1  and  C_12
REMARK    2  A    between atoms: C_2  and  O_13
REMARK    3  A    between atoms: C_3  and  C_4
REMARK    4  A    between atoms: C_8  and  C_9
REMARK    5  A    between atoms: C_10  and  C_12
REMARK    6  A    between atoms: C_10  and  O_13
REMARK    7  A    between atoms: C_11  and  C_12
REMARK                            x       y       z     vdW  Elec       q    Type
REMARK                         _______ _______ _______ _____ _____    ______ ____
ROOT
ATOM      1  C   UNL A   1      77.304  82.105  88.462  0.00  0.00    +0.127 A 
ATOM      2  C   UNL A   1      77.817  80.826  88.790  0.00  0.00    -0.009 A 
ATOM      3  C   UNL A   1      77.098  79.500  88.845  0.00  0.00    +0.048 C 
ATOM      4  C   UNL A   1      79.168  80.731  89.202  0.00  0.00    +0.007 A 
ATOM      5  C   UNL A   1      80.005  81.836  89.252  0.00  0.00    +0.001 A 
ATOM      6  C   UNL A   1      79.513  83.079  88.895  0.00  0.00    +0.007 A 
ATOM      7  C   UNL A   1      78.173  83.230  88.501  0.00  0.00    -0.009 A 
ATOM      8  C   UNL A   1      77.701  84.613  88.129  0.00  0.00    +0.048 C 
ENDROOT
BRANCH   1   9
ATOM      9  O   UNL A   1      76.011  82.455  88.113  0.00  0.00    -0.486 OA
BRANCH   9  10
ATOM     10  C   UNL A   1      75.001  82.274  89.087  0.00  0.00    +0.282 C 
BRANCH  10  12
ATOM     11  C   UNL A   1      75.634  83.198  91.301  0.00  0.00    +0.067 C 
ATOM     12  C   UNL A   1      74.822  83.477  90.033  0.00  0.00    +0.096 C 
BRANCH  12  13
ATOM     13  N   UNL A   1      73.416  83.689  90.400  0.00  0.00    +0.223 N 
ATOM     14  H   UNL A   1      73.024  84.436  89.828  0.00  0.00    +0.200 HD
ATOM     15  H   UNL A   1      73.357  83.948  91.385  0.00  0.00    +0.200 HD
ATOM     16  H   UNL A   1      72.891  82.829  90.243  0.00  0.00    +0.200 HD
ENDBRANCH  12  13
ENDBRANCH  10  12
ENDBRANCH   9  10
ENDBRANCH   1   9
TORSDOF 4
ENDMDL
MODEL 5
REMARK VINA RESULT:      -6.1     30.578     31.888
REMARK  Name = mexiletine.pdb
REMARK  7 active torsions:
REMARK  status: ('A' for Active; 'I' for Inactive)
REMARK    1  A    between atoms: N_1  and  C_12
REMARK    2  A    between atoms: C_2  and  O_13
REMARK    3  A    between atoms: C_3  and  C_4
REMARK    4  A    between atoms: C_8  and  C_9
REMARK    5  A    between atoms: C_10  and  C_12
REMARK    6  A    between atoms: C_10  and  O_13
REMARK    7  A    between atoms: C_11  and  C_12
REMARK                            x       y       z     vdW  Elec       q    Type
REMARK                         _______ _______ _______ _____ _____    ______ ____
ROOT
ATOM      1  C   UNL A   1      35.069  80.791  97.076  0.00  0.00    +0.127 A 
ATOM      2  C   UNL A   1      34.395  80.624  95.841  0.00  0.00    -0.009 A 
ATOM      3  C   UNL A   1      34.513  79.502  94.838  0.00  0.00    +0.048 C 
ATOM      4  C   UNL A   1      33.532  81.658  95.403  0.00  0.00    +0.007 A 
ATOM      5  C   UNL A   1      33.300  82.796  96.159  0.00  0.00    +0.001 A 
ATOM      6  C   UNL A   1      33.930  82.941  97.384  0.00  0.00    +0.007 A 
ATOM      7  C   UNL A   1      34.813  81.955  97.852  0.00  0.00    -0.009 A 
ATOM      8  C   UNL A   1      35.468  82.177  99.192  0.00  0.00    +0.048 C 
ENDROOT
BRANCH   1   9
ATOM      9  O   UNL A   1      36.009  79.965  97.666  0.00  0.00    -0.486 OA
BRANCH   9  10
ATOM     10  C   UNL A   1      37.253  79.816  97.008  0.00  0.00    +0.282 C 
BRANCH  10  12
ATOM     11  C   UNL A   1      38.425  77.903  98.067  0.00  0.00    +0.067 C 
ATOM     12  C   UNL A   1      38.413  79.429  97.945  0.00  0.00    +0.096 C 
BRANCH  12  13
ATOM     13  N   UNL A   1      38.263  80.016  99.283  0.00  0.00    +0.223 N 
ATOM     14  H   UNL A   1      38.491  79.317  99.989  0.00  0.00    +0.200 HD
ATOM     15  H   UNL A   1      37.300  80.328  99.412  0.00  0.00    +0.200 HD
ATOM     16  H   UNL A   1      38.893  80.812  99.378  0.00  0.00    +0.200 HD
ENDBRANCH  12  13
ENDBRANCH  10  12
ENDBRANCH   9  10
ENDBRANCH   1   9
TORSDOF 4
ENDMDL
MODEL 6
REMARK VINA RESULT:      -6.1      0.243      2.452
REMARK  Name = mexiletine.pdb
REMARK  7 active torsions:
REMARK  status: ('A' for Active; 'I' for Inactive)
REMARK    1  A    between atoms: N_1  and  C_12
REMARK    2  A    between atoms: C_2  and  O_13
REMARK    3  A    between atoms: C_3  and  C_4
REMARK    4  A    between atoms: C_8  and  C_9
REMARK    5  A    between atoms: C_10  and  C_12
REMARK    6  A    between atoms: C_10  and  O_13
REMARK    7  A    between atoms: C_11  and  C_12
REMARK                            x       y       z     vdW  Elec       q    Type
REMARK                         _______ _______ _______ _____ _____    ______ ____
ROOT
ATOM      1  C   UNL A   1      57.453  77.112  74.518  0.00  0.00    +0.127 A 
ATOM      2  C   UNL A   1      57.726  78.054  73.496  0.00  0.00    -0.009 A 
ATOM      3  C   UNL A   1      58.161  77.809  72.071  0.00  0.00    +0.048 C 
ATOM      4  C   UNL A   1      57.668  79.432  73.819  0.00  0.00    +0.007 A 
ATOM      5  C   UNL A   1      57.316  79.879  75.084  0.00  0.00    +0.001 A 
ATOM      6  C   UNL A   1      57.012  78.958  76.072  0.00  0.00    +0.007 A 
ATOM      7  C   UNL A   1      57.078  77.581  75.808  0.00  0.00    -0.009 A 
ATOM      8  C   UNL A   1      56.738  76.633  76.930  0.00  0.00    +0.048 C 
ENDROOT
BRANCH   1   9
ATOM      9  O   UNL A   1      57.523  75.731  74.463  0.00  0.00    -0.486 OA
BRANCH   9  10
ATOM     10  C   UNL A   1      58.805  75.138  74.550  0.00  0.00    +0.282 C 
BRANCH  10  12
ATOM     11  C   UNL A   1      58.039  72.911  73.768  0.00  0.00    +0.067 C 
ATOM     12  C   UNL A   1      58.777  73.638  74.897  0.00  0.00    +0.096 C 
BRANCH  12  13
ATOM     13  N   UNL A   1      58.087  73.376  76.167  0.00  0.00    +0.223 N 
ATOM     14  H   UNL A   1      57.136  73.063  75.980  0.00  0.00    +0.200 HD
ATOM     15  H   UNL A   1      58.061  74.232  76.722  0.00  0.00    +0.200 HD
ATOM     16  H   UNL A   1      58.588  72.652  76.683  0.00  0.00    +0.200 HD
ENDBRANCH  12  13
ENDBRANCH  10  12
ENDBRANCH   9  10
ENDBRANCH   1   9
TORSDOF 4
ENDMDL
MODEL 7
REMARK VINA RESULT:      -6.1     53.810     54.871
REMARK  Name = mexiletine.pdb
REMARK  7 active torsions:
REMARK  status: ('A' for Active; 'I' for Inactive)
REMARK    1  A    between atoms: N_1  and  C_12
REMARK    2  A    between atoms: C_2  and  O_13
REMARK    3  A    between atoms: C_3  and  C_4
REMARK    4  A    between atoms: C_8  and  C_9
REMARK    5  A    between atoms: C_10  and  C_12
REMARK    6  A    between atoms: C_10  and  O_13
REMARK    7  A    between atoms: C_11  and  C_12
REMARK                            x       y       z     vdW  Elec       q    Type
REMARK                         _______ _______ _______ _____ _____    ______ ____
ROOT
ATOM      1  C   UNL A   1     112.511  75.970  76.396  0.00  0.00    +0.127 A 
ATOM      2  C   UNL A   1     113.214  77.113  76.848  0.00  0.00    -0.009 A 
ATOM      3  C   UNL A   1     114.228  77.225  77.962  0.00  0.00    +0.048 C 
ATOM      4  C   UNL A   1     112.913  78.365  76.258  0.00  0.00    +0.007 A 
ATOM      5  C   UNL A   1     111.988  78.494  75.233  0.00  0.00    +0.001 A 
ATOM      6  C   UNL A   1     111.328  77.370  74.765  0.00  0.00    +0.007 A 
ATOM      7  C   UNL A   1     111.575  76.110  75.334  0.00  0.00    -0.009 A 
ATOM      8  C   UNL A   1     110.818  74.929  74.780  0.00  0.00    +0.048 C 
ENDROOT
BRANCH   1   9
ATOM      9  O   UNL A   1     112.575  74.671  76.868  0.00  0.00    -0.486 OA
BRANCH   9  10
ATOM     10  C   UNL A   1     111.838  74.364  78.037  0.00  0.00    +0.282 C 
BRANCH  10  12
ATOM     11  C   UNL A   1     112.692  75.066  80.258  0.00  0.00    +0.067 C 
ATOM     12  C   UNL A   1     112.711  73.931  79.230  0.00  0.00    +0.096 C 
BRANCH  12  13
ATOM     13  N   UNL A   1     114.100  73.666  78.833  0.00  0.00    +0.223 N 
ATOM     14  H   UNL A   1     114.151  73.569  77.819  0.00  0.00    +0.200 HD
ATOM     15  H   UNL A   1     114.422  72.805  79.274  0.00  0.00    +0.200 HD
ATOM     16  H   UNL A   1     114.692  74.442  79.130  0.00  0.00    +0.200 HD
ENDBRANCH  12  13
ENDBRANCH  10  12
ENDBRANCH   9  10
ENDBRANCH   1   9
TORSDOF 4
ENDMDL
MODEL 8
REMARK VINA RESULT:      -6.0     36.343     37.984
REMARK  Name = mexiletine.pdb
REMARK  7 active torsions:
REMARK  status: ('A' for Active; 'I' for Inactive)
REMARK    1  A    between atoms: N_1  and  C_12
REMARK    2  A    between atoms: C_2  and  O_13
REMARK    3  A    between atoms: C_3  and  C_4
REMARK    4  A    between atoms: C_8  and  C_9
REMARK    5  A    between atoms: C_10  and  C_12
REMARK    6  A    between atoms: C_10  and  O_13
REMARK    7  A    between atoms: C_11  and  C_12
REMARK                            x       y       z     vdW  Elec       q    Type
REMARK                         _______ _______ _______ _____ _____    ______ ____
ROOT
ATOM      1  C   UNL A   1      76.604  44.249  78.518  0.00  0.00    +0.127 A 
ATOM      2  C   UNL A   1      76.694  45.646  78.304  0.00  0.00    -0.009 A 
ATOM      3  C   UNL A   1      77.089  46.732  79.275  0.00  0.00    +0.048 C 
ATOM      4  C   UNL A   1      76.303  46.158  77.042  0.00  0.00    +0.007 A 
ATOM      5  C   UNL A   1      75.878  45.335  76.011  0.00  0.00    +0.001 A 
ATOM      6  C   UNL A   1      75.826  43.966  76.209  0.00  0.00    +0.007 A 
ATOM      7  C   UNL A   1      76.181  43.411  77.449  0.00  0.00    -0.009 A 
ATOM      8  C   UNL A   1      76.097  41.912  77.599  0.00  0.00    +0.048 C 
ENDROOT
BRANCH   1   9
ATOM      9  O   UNL A   1      76.851  43.534  79.677  0.00  0.00    -0.486 OA
BRANCH   9  10
ATOM     10  C   UNL A   1      78.203  43.353  80.056  0.00  0.00    +0.282 C 
BRANCH  10  12
ATOM     11  C   UNL A   1      79.831  44.923  81.077  0.00  0.00    +0.067 C 
ATOM     12  C   UNL A   1      78.587  44.075  81.362  0.00  0.00    +0.096 C 
BRANCH  12  13
ATOM     13  N   UNL A   1      78.887  43.132  82.448  0.00  0.00    +0.223 N 
ATOM     14  H   UNL A   1      78.278  43.325  83.243  0.00  0.00    +0.200 HD
ATOM     15  H   UNL A   1      79.861  43.239  82.732  0.00  0.00    +0.200 HD
ATOM     16  H   UNL A   1      78.730  42.179  82.123  0.00  0.00    +0.200 HD
ENDBRANCH  12  13
ENDBRANCH  10  12
ENDBRANCH   9  10
ENDBRANCH   1   9
TORSDOF 4
ENDMDL
MODEL 9
REMARK VINA RESULT:      -5.9     17.212     18.351
REMARK  Name = mexiletine.pdb
REMARK  7 active torsions:
REMARK  status: ('A' for Active; 'I' for Inactive)
REMARK    1  A    between atoms: N_1  and  C_12
REMARK    2  A    between atoms: C_2  and  O_13
REMARK    3  A    between atoms: C_3  and  C_4
REMARK    4  A    between atoms: C_8  and  C_9
REMARK    5  A    between atoms: C_10  and  C_12
REMARK    6  A    between atoms: C_10  and  O_13
REMARK    7  A    between atoms: C_11  and  C_12
REMARK                            x       y       z     vdW  Elec       q    Type
REMARK                         _______ _______ _______ _____ _____    ______ ____
ROOT
ATOM      1  C   UNL A   1      67.620  78.553  90.617  0.00  0.00    +0.127 A 
ATOM      2  C   UNL A   1      66.767  79.637  90.939  0.00  0.00    -0.009 A 
ATOM      3  C   UNL A   1      65.259  79.678  90.984  0.00  0.00    +0.048 C 
ATOM      4  C   UNL A   1      67.354  80.901  91.192  0.00  0.00    +0.007 A 
ATOM      5  C   UNL A   1      68.727  81.095  91.173  0.00  0.00    +0.001 A 
ATOM      6  C   UNL A   1      69.562  80.026  90.896  0.00  0.00    +0.007 A 
ATOM      7  C   UNL A   1      69.028  78.758  90.616  0.00  0.00    -0.009 A 
ATOM      8  C   UNL A   1      69.993  77.638  90.318  0.00  0.00    +0.048 C 
ENDROOT
BRANCH   1   9
ATOM      9  O   UNL A   1      67.279  77.261  90.259  0.00  0.00    -0.486 OA
BRANCH   9  10
ATOM     10  C   UNL A   1      66.597  77.082  89.032  0.00  0.00    +0.282 C 
BRANCH  10  12
ATOM     11  C   UNL A   1      68.091  77.224  87.056  0.00  0.00    +0.067 C 
ATOM     12  C   UNL A   1      67.379  76.249  87.999  0.00  0.00    +0.096 C 
BRANCH  12  13
ATOM     13  N   UNL A   1      66.498  75.376  87.210  0.00  0.00    +0.223 N 
ATOM     14  H   UNL A   1      66.351  75.786  86.288  0.00  0.00    +0.200 HD
ATOM     15  H   UNL A   1      65.602  75.279  87.687  0.00  0.00    +0.200 HD
ATOM     16  H   UNL A   1      66.932  74.459  87.110  0.00  0.00    +0.200 HD
ENDBRANCH  12  13
ENDBRANCH  10  12
ENDBRANCH   9  10
ENDBRANCH   1   9
TORSDOF 4
ENDMDL
MODEL 10
REMARK VINA RESULT:      -5.9      2.233      3.995
REMARK  Name = mexiletine.pdb
REMARK  7 active torsions:
REMARK  status: ('A' for Active; 'I' for Inactive)
REMARK    1  A    between atoms: N_1  and  C_12
REMARK    2  A    between atoms: C_2  and  O_13
REMARK    3  A    between atoms: C_3  and  C_4
REMARK    4  A    between atoms: C_8  and  C_9
REMARK    5  A    between atoms: C_10  and  C_12
REMARK    6  A    between atoms: C_10  and  O_13
REMARK    7  A    between atoms: C_11  and  C_12
REMARK                            x       y       z     vdW  Elec       q    Type
REMARK                         _______ _______ _______ _____ _____    ______ ____
ROOT
ATOM      1  C   UNL A   1      58.079  75.824  75.137  0.00  0.00    +0.127 A 
ATOM      2  C   UNL A   1      57.358  76.879  75.747  0.00  0.00    -0.009 A 
ATOM      3  C   UNL A   1      57.196  78.308  75.289  0.00  0.00    +0.048 C 
ATOM      4  C   UNL A   1      56.744  76.635  77.000  0.00  0.00    +0.007 A 
ATOM      5  C   UNL A   1      56.794  75.395  77.618  0.00  0.00    +0.001 A 
ATOM      6  C   UNL A   1      57.467  74.354  77.002  0.00  0.00    +0.007 A 
ATOM      7  C   UNL A   1      58.113  74.551  75.770  0.00  0.00    -0.009 A 
ATOM      8  C   UNL A   1      58.831  73.376  75.157  0.00  0.00    +0.048 C 
ENDROOT
BRANCH   1   9
ATOM      9  O   UNL A   1      58.819  75.846  73.967  0.00  0.00    -0.486 OA
BRANCH   9  10
ATOM     10  C   UNL A   1      58.133  75.593  72.756  0.00  0.00    +0.282 C 
BRANCH  10  12
ATOM     11  C   UNL A   1      56.352  77.039  71.811  0.00  0.00    +0.067 C 
ATOM     12  C   UNL A   1      57.869  76.854  71.912  0.00  0.00    +0.096 C 
BRANCH  12  13
ATOM     13  N   UNL A   1      58.430  76.742  70.559  0.00  0.00    +0.223 N 
ATOM     14  H   UNL A   1      58.078  77.505  69.981  0.00  0.00    +0.200 HD
ATOM     15  H   UNL A   1      58.153  75.850  70.149  0.00  0.00    +0.200 HD
ATOM     16  H   UNL A   1      59.447  76.794  70.607  0.00  0.00    +0.200 HD
ENDBRANCH  12  13
ENDBRANCH  10  12
ENDBRANCH   9  10
ENDBRANCH   1   9
TORSDOF 4
ENDMDL
MODEL 11
REMARK VINA RESULT:      -5.9     24.726     26.412
REMARK  Name = mexiletine.pdb
REMARK  7 active torsions:
REMARK  status: ('A' for Active; 'I' for Inactive)
REMARK    1  A    between atoms: N_1  and  C_12
REMARK    2  A    between atoms: C_2  and  O_13
REMARK    3  A    between atoms: C_3  and  C_4
REMARK    4  A    between atoms: C_8  and  C_9
REMARK    5  A    between atoms: C_10  and  C_12
REMARK    6  A    between atoms: C_10  and  O_13
REMARK    7  A    between atoms: C_11  and  C_12
REMARK                            x       y       z     vdW  Elec       q    Type
REMARK                         _______ _______ _______ _____ _____    ______ ____
ROOT
ATOM      1  C   UNL A   1      65.916  95.846  91.718  0.00  0.00    +0.127 A 
ATOM      2  C   UNL A   1      65.803  95.623  93.112  0.00  0.00    -0.009 A 
ATOM      3  C   UNL A   1      64.627  95.093  93.897  0.00  0.00    +0.048 C 
ATOM      4  C   UNL A   1      66.887  95.998  93.942  0.00  0.00    +0.007 A 
ATOM      5  C   UNL A   1      68.059  96.533  93.428  0.00  0.00    +0.001 A 
ATOM      6  C   UNL A   1      68.183  96.716  92.062  0.00  0.00    +0.007 A 
ATOM      7  C   UNL A   1      67.127  96.381  91.199  0.00  0.00    -0.009 A 
ATOM      8  C   UNL A   1      67.327  96.610  89.722  0.00  0.00    +0.048 C 
ENDROOT
BRANCH   1   9
ATOM      9  O   UNL A   1      64.970  95.636  90.729  0.00  0.00    -0.486 OA
BRANCH   9  10
ATOM     10  C   UNL A   1      64.685  94.297  90.372  0.00  0.00    +0.282 C 
BRANCH  10  12
ATOM     11  C   UNL A   1      63.464  93.428  88.394  0.00  0.00    +0.067 C 
ATOM     12  C   UNL A   1      64.799  94.016  88.861  0.00  0.00    +0.096 C 
BRANCH  12  13
ATOM     13  N   UNL A   1      65.875  93.064  88.555  0.00  0.00    +0.223 N 
ATOM     14  H   UNL A   1      66.487  92.970  89.366  0.00  0.00    +0.200 HD
ATOM     15  H   UNL A   1      66.415  93.405  87.759  0.00  0.00    +0.200 HD
ATOM     16  H   UNL A   1      65.471  92.155  88.328  0.00  0.00    +0.200 HD
ENDBRANCH  12  13
ENDBRANCH  10  12
ENDBRANCH   9  10
ENDBRANCH   1   9
TORSDOF 4
ENDMDL
MODEL 12
REMARK VINA RESULT:      -5.9     40.874     42.469
REMARK  Name = mexiletine.pdb
REMARK  7 active torsions:
REMARK  status: ('A' for Active; 'I' for Inactive)
REMARK    1  A    between atoms: N_1  and  C_12
REMARK    2  A    between atoms: C_2  and  O_13
REMARK    3  A    between atoms: C_3  and  C_4
REMARK    4  A    between atoms: C_8  and  C_9
REMARK    5  A    between atoms: C_10  and  C_12
REMARK    6  A    between atoms: C_10  and  O_13
REMARK    7  A    between atoms: C_11  and  C_12
REMARK                            x       y       z     vdW  Elec       q    Type
REMARK                         _______ _______ _______ _____ _____    ______ ____
ROOT
ATOM      1  C   UNL A   1      75.020  59.462 108.985  0.00  0.00    +0.127 A 
ATOM      2  C   UNL A   1      74.274  60.463 108.315  0.00  0.00    -0.009 A 
ATOM      3  C   UNL A   1      73.345  61.502 108.895  0.00  0.00    +0.048 C 
ATOM      4  C   UNL A   1      74.312  60.494 106.900  0.00  0.00    +0.007 A 
ATOM      5  C   UNL A   1      75.082  59.608 106.163  0.00  0.00    +0.001 A 
ATOM      6  C   UNL A   1      75.840  58.654 106.820  0.00  0.00    +0.007 A 
ATOM      7  C   UNL A   1      75.819  58.567 108.221  0.00  0.00    -0.009 A 
ATOM      8  C   UNL A   1      76.665  57.502 108.873  0.00  0.00    +0.048 C 
ENDROOT
BRANCH   1   9
ATOM      9  O   UNL A   1      75.076  59.187 110.340  0.00  0.00    -0.486 OA
BRANCH   9  10
ATOM     10  C   UNL A   1      73.879  58.776 110.973  0.00  0.00    +0.282 C 
BRANCH  10  12
ATOM     11  C   UNL A   1      75.577  57.691 112.421  0.00  0.00    +0.067 C 
ATOM     12  C   UNL A   1      74.086  57.719 112.075  0.00  0.00    +0.096 C 
BRANCH  12  13
ATOM     13  N   UNL A   1      73.668  56.379 111.642  0.00  0.00    +0.223 N 
ATOM     14  H   UNL A   1      73.449  56.396 110.647  0.00  0.00    +0.200 HD
ATOM     15  H   UNL A   1      72.841  56.094 112.168  0.00  0.00    +0.200 HD
ATOM     16  H   UNL A   1      74.423  55.716 111.813  0.00  0.00    +0.200 HD
ENDBRANCH  12  13
ENDBRANCH  10  12
ENDBRANCH   9  10
ENDBRANCH   1   9
TORSDOF 4
ENDMDL
MODEL 13
REMARK VINA RESULT:      -5.9     53.815     54.894
REMARK  Name = mexiletine.pdb
REMARK  7 active torsions:
REMARK  status: ('A' for Active; 'I' for Inactive)
REMARK    1  A    between atoms: N_1  and  C_12
REMARK    2  A    between atoms: C_2  and  O_13
REMARK    3  A    between atoms: C_3  and  C_4
REMARK    4  A    between atoms: C_8  and  C_9
REMARK    5  A    between atoms: C_10  and  C_12
REMARK    6  A    between atoms: C_10  and  O_13
REMARK    7  A    between atoms: C_11  and  C_12
REMARK                            x       y       z     vdW  Elec       q    Type
REMARK                         _______ _______ _______ _____ _____    ______ ____
ROOT
ATOM      1  C   UNL A   1     112.597  75.948  76.662  0.00  0.00    +0.127 A 
ATOM      2  C   UNL A   1     111.579  75.873  75.681  0.00  0.00    -0.009 A 
ATOM      3  C   UNL A   1     110.789  74.672  75.222  0.00  0.00    +0.048 C 
ATOM      4  C   UNL A   1     111.267  77.043  74.947  0.00  0.00    +0.007 A 
ATOM      5  C   UNL A   1     111.896  78.256  75.188  0.00  0.00    +0.001 A 
ATOM      6  C   UNL A   1     112.865  78.337  76.173  0.00  0.00    +0.007 A 
ATOM      7  C   UNL A   1     113.226  77.199  76.913  0.00  0.00    -0.009 A 
ATOM      8  C   UNL A   1     114.292  77.356  77.969  0.00  0.00    +0.048 C 
ENDROOT
BRANCH   1   9
ATOM      9  O   UNL A   1     113.124  74.933  77.442  0.00  0.00    -0.486 OA
BRANCH   9  10
ATOM     10  C   UNL A   1     112.298  74.393  78.456  0.00  0.00    +0.282 C 
BRANCH  10  12
ATOM     11  C   UNL A   1     113.999  74.051  80.229  0.00  0.00    +0.067 C 
ATOM     12  C   UNL A   1     112.711  74.803  79.882  0.00  0.00    +0.096 C 
BRANCH  12  13
ATOM     13  N   UNL A   1     111.680  74.471  80.874  0.00  0.00    +0.223 N 
ATOM     14  H   UNL A   1     111.925  74.887  81.772  0.00  0.00    +0.200 HD
ATOM     15  H   UNL A   1     111.618  73.457  80.975  0.00  0.00    +0.200 HD
ATOM     16  H   UNL A   1     110.780  74.837  80.564  0.00  0.00    +0.200 HD
ENDBRANCH  12  13
ENDBRANCH  10  12
ENDBRANCH   9  10
ENDBRANCH   1   9
TORSDOF 4
ENDMDL
MODEL 14
REMARK VINA RESULT:      -5.9     26.415     28.265
REMARK  Name = mexiletine.pdb
REMARK  7 active torsions:
REMARK  status: ('A' for Active; 'I' for Inactive)
REMARK    1  A    between atoms: N_1  and  C_12
REMARK    2  A    between atoms: C_2  and  O_13
REMARK    3  A    between atoms: C_3  and  C_4
REMARK    4  A    between atoms: C_8  and  C_9
REMARK    5  A    between atoms: C_10  and  C_12
REMARK    6  A    between atoms: C_10  and  O_13
REMARK    7  A    between atoms: C_11  and  C_12
REMARK                            x       y       z     vdW  Elec       q    Type
REMARK                         _______ _______ _______ _____ _____    ______ ____
ROOT
ATOM      1  C   UNL A   1      65.892  95.520  92.872  0.00  0.00    +0.127 A 
ATOM      2  C   UNL A   1      65.742  95.732  91.480  0.00  0.00    -0.009 A 
ATOM      3  C   UNL A   1      64.591  95.353  90.580  0.00  0.00    +0.048 C 
ATOM      4  C   UNL A   1      66.821  96.314  90.769  0.00  0.00    +0.007 A 
ATOM      5  C   UNL A   1      67.990  96.712  91.399  0.00  0.00    +0.001 A 
ATOM      6  C   UNL A   1      68.121  96.539  92.766  0.00  0.00    +0.007 A 
ATOM      7  C   UNL A   1      67.089  95.946  93.512  0.00  0.00    -0.009 A 
ATOM      8  C   UNL A   1      67.298  95.783  94.996  0.00  0.00    +0.048 C 
ENDROOT
BRANCH   1   9
ATOM      9  O   UNL A   1      65.019  94.905  93.752  0.00  0.00    -0.486 OA
BRANCH   9  10
ATOM     10  C   UNL A   1      63.746  95.497  93.929  0.00  0.00    +0.282 C 
BRANCH  10  12
ATOM     11  C   UNL A   1      63.884  96.943  95.940  0.00  0.00    +0.067 C 
ATOM     12  C   UNL A   1      63.798  96.959  94.411  0.00  0.00    +0.096 C 
BRANCH  12  13
ATOM     13  N   UNL A   1      62.608  97.719  94.005  0.00  0.00    +0.223 N 
ATOM     14  H   UNL A   1      61.961  97.101  93.516  0.00  0.00    +0.200 HD
ATOM     15  H   UNL A   1      62.885  98.480  93.385  0.00  0.00    +0.200 HD
ATOM     16  H   UNL A   1      62.152  98.102  94.832  0.00  0.00    +0.200 HD
ENDBRANCH  12  13
ENDBRANCH  10  12
ENDBRANCH   9  10
ENDBRANCH   1   9
TORSDOF 4
ENDMDL
MODEL 15
REMARK VINA RESULT:      -5.8     36.360     38.190
REMARK  Name = mexiletine.pdb
REMARK  7 active torsions:
REMARK  status: ('A' for Active; 'I' for Inactive)
REMARK    1  A    between atoms: N_1  and  C_12
REMARK    2  A    between atoms: C_2  and  O_13
REMARK    3  A    between atoms: C_3  and  C_4
REMARK    4  A    between atoms: C_8  and  C_9
REMARK    5  A    between atoms: C_10  and  C_12
REMARK    6  A    between atoms: C_10  and  O_13
REMARK    7  A    between atoms: C_11  and  C_12
REMARK                            x       y       z     vdW  Elec       q    Type
REMARK                         _______ _______ _______ _____ _____    ______ ____
ROOT
ATOM      1  C   UNL A   1      76.390  43.970  78.330  0.00  0.00    +0.127 A 
ATOM      2  C   UNL A   1      75.943  43.156  77.260  0.00  0.00    -0.009 A 
ATOM      3  C   UNL A   1      75.746  41.660  77.223  0.00  0.00    +0.048 C 
ATOM      4  C   UNL A   1      75.698  43.769  76.007  0.00  0.00    +0.007 A 
ATOM      5  C   UNL A   1      75.845  45.135  75.813  0.00  0.00    +0.001 A 
ATOM      6  C   UNL A   1      76.246  45.934  76.869  0.00  0.00    +0.007 A 
ATOM      7  C   UNL A   1      76.522  45.371  78.125  0.00  0.00    -0.009 A 
ATOM      8  C   UNL A   1      76.959  46.298  79.232  0.00  0.00    +0.048 C 
ENDROOT
BRANCH   1   9
ATOM      9  O   UNL A   1      76.763  43.590  79.608  0.00  0.00    -0.486 OA
BRANCH   9  10
ATOM     10  C   UNL A   1      77.967  42.859  79.745  0.00  0.00    +0.282 C 
BRANCH  10  12
ATOM     11  C   UNL A   1      78.157  41.675  81.918  0.00  0.00    +0.067 C 
ATOM     12  C   UNL A   1      78.585  42.932  81.155  0.00  0.00    +0.096 C 
BRANCH  12  13
ATOM     13  N   UNL A   1      78.135  44.119  81.896  0.00  0.00    +0.223 N 
ATOM     14  H   UNL A   1      78.191  43.936  82.897  0.00  0.00    +0.200 HD
ATOM     15  H   UNL A   1      77.170  44.332  81.642  0.00  0.00    +0.200 HD
ATOM     16  H   UNL A   1      78.731  44.912  81.661  0.00  0.00    +0.200 HD
ENDBRANCH  12  13
ENDBRANCH  10  12
ENDBRANCH   9  10
ENDBRANCH   1   9
TORSDOF 4
ENDMDL
MODEL 16
REMARK VINA RESULT:      -5.8     25.420     26.127
REMARK  Name = mexiletine.pdb
REMARK  7 active torsions:
REMARK  status: ('A' for Active; 'I' for Inactive)
REMARK    1  A    between atoms: N_1  and  C_12
REMARK    2  A    between atoms: C_2  and  O_13
REMARK    3  A    between atoms: C_3  and  C_4
REMARK    4  A    between atoms: C_8  and  C_9
REMARK    5  A    between atoms: C_10  and  C_12
REMARK    6  A    between atoms: C_10  and  O_13
REMARK    7  A    between atoms: C_11  and  C_12
REMARK                            x       y       z     vdW  Elec       q    Type
REMARK                         _______ _______ _______ _____ _____    ______ ____
ROOT
ATOM      1  C   UNL A   1      77.351  82.180  90.143  0.00  0.00    +0.127 A 
ATOM      2  C   UNL A   1      78.122  81.255  90.888  0.00  0.00    -0.009 A 
ATOM      3  C   UNL A   1      78.715  81.407  92.268  0.00  0.00    +0.048 C 
ATOM      4  C   UNL A   1      78.475  80.028  90.275  0.00  0.00    +0.007 A 
ATOM      5  C   UNL A   1      78.058  79.695  88.995  0.00  0.00    +0.001 A 
ATOM      6  C   UNL A   1      77.273  80.585  88.282  0.00  0.00    +0.007 A 
ATOM      7  C   UNL A   1      76.915  81.824  88.837  0.00  0.00    -0.009 A 
ATOM      8  C   UNL A   1      76.062  82.748  88.004  0.00  0.00    +0.048 C 
ENDROOT
BRANCH   1   9
ATOM      9  O   UNL A   1      76.956  83.459  90.496  0.00  0.00    -0.486 OA
BRANCH   9  10
ATOM     10  C   UNL A   1      77.959  84.453  90.578  0.00  0.00    +0.282 C 
BRANCH  10  12
ATOM     11  C   UNL A   1      78.813  85.305  88.409  0.00  0.00    +0.067 C 
ATOM     12  C   UNL A   1      77.811  85.577  89.534  0.00  0.00    +0.096 C 
BRANCH  12  13
ATOM     13  N   UNL A   1      78.080  86.903  90.107  0.00  0.00    +0.223 N 
ATOM     14  H   UNL A   1      77.528  87.605  89.616  0.00  0.00    +0.200 HD
ATOM     15  H   UNL A   1      79.072  87.121  90.009  0.00  0.00    +0.200 HD
ATOM     16  H   UNL A   1      77.829  86.904  91.096  0.00  0.00    +0.200 HD
ENDBRANCH  12  13
ENDBRANCH  10  12
ENDBRANCH   9  10
ENDBRANCH   1   9
TORSDOF 4
ENDMDL
MODEL 17
REMARK VINA RESULT:      -5.8     57.569     58.533
REMARK  Name = mexiletine.pdb
REMARK  7 active torsions:
REMARK  status: ('A' for Active; 'I' for Inactive)
REMARK    1  A    between atoms: N_1  and  C_12
REMARK    2  A    between atoms: C_2  and  O_13
REMARK    3  A    between atoms: C_3  and  C_4
REMARK    4  A    between atoms: C_8  and  C_9
REMARK    5  A    between atoms: C_10  and  C_12
REMARK    6  A    between atoms: C_10  and  O_13
REMARK    7  A    between atoms: C_11  and  C_12
REMARK                            x       y       z     vdW  Elec       q    Type
REMARK                         _______ _______ _______ _____ _____    ______ ____
ROOT
ATOM      1  C   UNL A   1     113.530  77.551  90.456  0.00  0.00    +0.127 A 
ATOM      2  C   UNL A   1     112.690  76.411  90.460  0.00  0.00    -0.009 A 
ATOM      3  C   UNL A   1     113.072  74.950  90.466  0.00  0.00    +0.048 C 
ATOM      4  C   UNL A   1     111.291  76.608  90.376  0.00  0.00    +0.007 A 
ATOM      5  C   UNL A   1     110.725  77.873  90.331  0.00  0.00    +0.001 A 
ATOM      6  C   UNL A   1     111.545  78.988  90.365  0.00  0.00    +0.007 A 
ATOM      7  C   UNL A   1     112.941  78.845  90.425  0.00  0.00    -0.009 A 
ATOM      8  C   UNL A   1     113.775  80.100  90.455  0.00  0.00    +0.048 C 
ENDROOT
BRANCH   1   9
ATOM      9  O   UNL A   1     114.913  77.606  90.452  0.00  0.00    -0.486 OA
BRANCH   9  10
ATOM     10  C   UNL A   1     115.588  77.169  91.616  0.00  0.00    +0.282 C 
BRANCH  10  12
ATOM     11  C   UNL A   1     117.282  78.977  91.742  0.00  0.00    +0.067 C 
ATOM     12  C   UNL A   1     116.125  78.314  92.495  0.00  0.00    +0.096 C 
BRANCH  12  13
ATOM     13  N   UNL A   1     116.612  77.833  93.795  0.00  0.00    +0.223 N 
ATOM     14  H   UNL A   1     115.821  77.682  94.420  0.00  0.00    +0.200 HD
ATOM     15  H   UNL A   1     117.239  78.528  94.201  0.00  0.00    +0.200 HD
ATOM     16  H   UNL A   1     117.115  76.956  93.665  0.00  0.00    +0.200 HD
ENDBRANCH  12  13
ENDBRANCH  10  12
ENDBRANCH   9  10
ENDBRANCH   1   9
TORSDOF 4
ENDMDL
MODEL 18
REMARK VINA RESULT:      -5.8     29.278     29.986
REMARK  Name = mexiletine.pdb
REMARK  7 active torsions:
REMARK  status: ('A' for Active; 'I' for Inactive)
REMARK    1  A    between atoms: N_1  and  C_12
REMARK    2  A    between atoms: C_2  and  O_13
REMARK    3  A    between atoms: C_3  and  C_4
REMARK    4  A    between atoms: C_8  and  C_9
REMARK    5  A    between atoms: C_10  and  C_12
REMARK    6  A    between atoms: C_10  and  O_13
REMARK    7  A    between atoms: C_11  and  C_12
REMARK                            x       y       z     vdW  Elec       q    Type
REMARK                         _______ _______ _______ _____ _____    ______ ____
ROOT
ATOM      1  C   UNL A   1      80.513  86.992  92.125  0.00  0.00    +0.127 A 
ATOM      2  C   UNL A   1      79.634  88.100  92.210  0.00  0.00    -0.009 A 
ATOM      3  C   UNL A   1      78.804  88.738  91.123  0.00  0.00    +0.048 C 
ATOM      4  C   UNL A   1      79.537  88.787  93.445  0.00  0.00    +0.007 A 
ATOM      5  C   UNL A   1      80.239  88.384  94.571  0.00  0.00    +0.001 A 
ATOM      6  C   UNL A   1      81.068  87.278  94.497  0.00  0.00    +0.007 A 
ATOM      7  C   UNL A   1      81.217  86.577  93.289  0.00  0.00    -0.009 A 
ATOM      8  C   UNL A   1      82.140  85.385  93.277  0.00  0.00    +0.048 C 
ENDROOT
BRANCH   1   9
ATOM      9  O   UNL A   1      80.831  86.223  91.020  0.00  0.00    -0.486 OA
BRANCH   9  10
ATOM     10  C   UNL A   1      79.904  85.228  90.628  0.00  0.00    +0.282 C 
BRANCH  10  12
ATOM     11  C   UNL A   1      77.660  85.567  89.623  0.00  0.00    +0.067 C 
ATOM     12  C   UNL A   1      79.161  85.548  89.317  0.00  0.00    +0.096 C 
BRANCH  12  13
ATOM     13  N   UNL A   1      79.425  84.548  88.273  0.00  0.00    +0.223 N 
ATOM     14  H   UNL A   1      79.996  83.797  88.659  0.00  0.00    +0.200 HD
ATOM     15  H   UNL A   1      79.921  84.989  87.498  0.00  0.00    +0.200 HD
ATOM     16  H   UNL A   1      78.541  84.165  87.938  0.00  0.00    +0.200 HD
ENDBRANCH  12  13
ENDBRANCH  10  12
ENDBRANCH   9  10
ENDBRANCH   1   9
TORSDOF 4
ENDMDL
MODEL 19
REMARK VINA RESULT:      -5.7     28.955     29.585
REMARK  Name = mexiletine.pdb
REMARK  7 active torsions:
REMARK  status: ('A' for Active; 'I' for Inactive)
REMARK    1  A    between atoms: N_1  and  C_12
REMARK    2  A    between atoms: C_2  and  O_13
REMARK    3  A    between atoms: C_3  and  C_4
REMARK    4  A    between atoms: C_8  and  C_9
REMARK    5  A    between atoms: C_10  and  C_12
REMARK    6  A    between atoms: C_10  and  O_13
REMARK    7  A    between atoms: C_11  and  C_12
REMARK                            x       y       z     vdW  Elec       q    Type
REMARK                         _______ _______ _______ _____ _____    ______ ____
ROOT
ATOM      1  C   UNL A   1      80.418  86.605  91.794  0.00  0.00    +0.127 A 
ATOM      2  C   UNL A   1      81.247  86.208  92.872  0.00  0.00    -0.009 A 
ATOM      3  C   UNL A   1      82.169  85.017  92.972  0.00  0.00    +0.048 C 
ATOM      4  C   UNL A   1      81.189  86.955  94.073  0.00  0.00    +0.007 A 
ATOM      5  C   UNL A   1      80.382  88.075  94.208  0.00  0.00    +0.001 A 
ATOM      6  C   UNL A   1      79.601  88.484  93.141  0.00  0.00    +0.007 A 
ATOM      7  C   UNL A   1      79.606  87.764  91.936  0.00  0.00    -0.009 A 
ATOM      8  C   UNL A   1      78.728  88.262  90.815  0.00  0.00    +0.048 C 
ENDROOT
BRANCH   1   9
ATOM      9  O   UNL A   1      80.246  85.993  90.564  0.00  0.00    -0.486 OA
BRANCH   9  10
ATOM     10  C   UNL A   1      79.666  84.702  90.554  0.00  0.00    +0.282 C 
BRANCH  10  12
ATOM     11  C   UNL A   1      79.128  85.219  88.187  0.00  0.00    +0.067 C 
ATOM     12  C   UNL A   1      78.623  84.495  89.439  0.00  0.00    +0.096 C 
BRANCH  12  13
ATOM     13  N   UNL A   1      77.306  85.032  89.806  0.00  0.00    +0.223 N 
ATOM     14  H   UNL A   1      76.733  84.287  90.200  0.00  0.00    +0.200 HD
ATOM     15  H   UNL A   1      76.850  85.410  88.975  0.00  0.00    +0.200 HD
ATOM     16  H   UNL A   1      77.423  85.773  90.496  0.00  0.00    +0.200 HD
ENDBRANCH  12  13
ENDBRANCH  10  12
ENDBRANCH   9  10
ENDBRANCH   1   9
TORSDOF 4
ENDMDL
MODEL 20
REMARK VINA RESULT:      -5.7     24.731     26.525
REMARK  Name = mexiletine.pdb
REMARK  7 active torsions:
REMARK  status: ('A' for Active; 'I' for Inactive)
REMARK    1  A    between atoms: N_1  and  C_12
REMARK    2  A    between atoms: C_2  and  O_13
REMARK    3  A    between atoms: C_3  and  C_4
REMARK    4  A    between atoms: C_8  and  C_9
REMARK    5  A    between atoms: C_10  and  C_12
REMARK    6  A    between atoms: C_10  and  O_13
REMARK    7  A    between atoms: C_11  and  C_12
REMARK                            x       y       z     vdW  Elec       q    Type
REMARK                         _______ _______ _______ _____ _____    ______ ____
ROOT
ATOM      1  C   UNL A   1      65.861  95.898  91.659  0.00  0.00    +0.127 A 
ATOM      2  C   UNL A   1      67.120  96.302  91.152  0.00  0.00    -0.009 A 
ATOM      3  C   UNL A   1      67.579  96.402  89.717  0.00  0.00    +0.048 C 
ATOM      4  C   UNL A   1      68.152  96.597  92.076  0.00  0.00    +0.007 A 
ATOM      5  C   UNL A   1      67.954  96.541  93.447  0.00  0.00    +0.001 A 
ATOM      6  C   UNL A   1      66.712  96.182  93.942  0.00  0.00    +0.007 A 
ATOM      7  C   UNL A   1      65.662  95.858  93.067  0.00  0.00    -0.009 A 
ATOM      8  C   UNL A   1      64.336  95.471  93.672  0.00  0.00    +0.048 C 
ENDROOT
BRANCH   1   9
ATOM      9  O   UNL A   1      64.739  95.488  90.961  0.00  0.00    -0.486 OA
BRANCH   9  10
ATOM     10  C   UNL A   1      64.736  94.171  90.444  0.00  0.00    +0.282 C 
BRANCH  10  12
ATOM     11  C   UNL A   1      63.488  93.562  88.387  0.00  0.00    +0.067 C 
ATOM     12  C   UNL A   1      64.823  94.103  88.907  0.00  0.00    +0.096 C 
BRANCH  12  13
ATOM     13  N   UNL A   1      65.908  93.221  88.453  0.00  0.00    +0.223 N 
ATOM     14  H   UNL A   1      66.752  93.772  88.301  0.00  0.00    +0.200 HD
ATOM     15  H   UNL A   1      65.635  92.769  87.580  0.00  0.00    +0.200 HD
ATOM     16  H   UNL A   1      66.088  92.511  89.162  0.00  0.00    +0.200 HD
ENDBRANCH  12  13
ENDBRANCH  10  12
ENDBRANCH   9  10
ENDBRANCH   1   9
TORSDOF 4
ENDMDL
