MODEL 1
REMARK VINA RESULT:      -6.4      0.000      0.000
REMARK  Name = mexiletine.pdb
REMARK  7 active torsions:
REMARK  status: ('A' for Active; 'I' for Inactive)
REMARK    1  A    between atoms: N_1  and  C_12
REMARK    2  A    between atoms: C_2  and  O_13
REMARK    3  A    between atoms: C_3  and  C_4
REMARK    4  A    between atoms: C_8  and  C_9
REMARK    5  A    between atoms: C_10  and  C_12
REMARK    6  A    between atoms: C_10  and  O_13
REMARK    7  A    between atoms: C_11  and  C_12
REMARK                            x       y       z     vdW  Elec       q    Type
REMARK                         _______ _______ _______ _____ _____    ______ ____
ROOT
ATOM      1  C   UNL A   1      79.279  84.397  87.183  0.00  0.00    +0.127 A 
ATOM      2  C   UNL A   1      79.694  83.043  87.156  0.00  0.00    -0.009 A 
ATOM      3  C   UNL A   1      78.852  81.791  87.189  0.00  0.00    +0.048 C 
ATOM      4  C   UNL A   1      81.083  82.767  87.172  0.00  0.00    +0.007 A 
ATOM      5  C   UNL A   1      82.036  83.774  87.173  0.00  0.00    +0.001 A 
ATOM      6  C   UNL A   1      81.630  85.097  87.161  0.00  0.00    +0.007 A 
ATOM      7  C   UNL A   1      80.264  85.423  87.168  0.00  0.00    -0.009 A 
ATOM      8  C   UNL A   1      79.890  86.884  87.159  0.00  0.00    +0.048 C 
ENDROOT
BRANCH   1   9
ATOM      9  O   UNL A   1      77.994  84.907  87.251  0.00  0.00    -0.486 OA
BRANCH   9  10
ATOM     10  C   UNL A   1      77.265  84.681  88.443  0.00  0.00    +0.282 C 
BRANCH  10  12
ATOM     11  C   UNL A   1      75.389  83.147  87.909  0.00  0.00    +0.067 C 
ATOM     12  C   UNL A   1      75.741  84.601  88.237  0.00  0.00    +0.096 C 
BRANCH  12  13
ATOM     13  N   UNL A   1      75.284  85.465  87.140  0.00  0.00    +0.223 N 
ATOM     14  H   UNL A   1      76.046  86.079  86.851  0.00  0.00    +0.200 HD
ATOM     15  H   UNL A   1      74.495  86.028  87.456  0.00  0.00    +0.200 HD
ATOM     16  H   UNL A   1      74.995  84.887  86.351  0.00  0.00    +0.200 HD
ENDBRANCH  12  13
ENDBRANCH  10  12
ENDBRANCH   9  10
ENDBRANCH   1   9
TORSDOF 4
ENDMDL
MODEL 2
REMARK VINA RESULT:      -6.4      0.305      2.458
REMARK  Name = mexiletine.pdb
REMARK  7 active torsions:
REMARK  status: ('A' for Active; 'I' for Inactive)
REMARK    1  A    between atoms: N_1  and  C_12
REMARK    2  A    between atoms: C_2  and  O_13
REMARK    3  A    between atoms: C_3  and  C_4
REMARK    4  A    between atoms: C_8  and  C_9
REMARK    5  A    between atoms: C_10  and  C_12
REMARK    6  A    between atoms: C_10  and  O_13
REMARK    7  A    between atoms: C_11  and  C_12
REMARK                            x       y       z     vdW  Elec       q    Type
REMARK                         _______ _______ _______ _____ _____    ______ ____
ROOT
ATOM      1  C   UNL A   1      79.383  84.122  87.188  0.00  0.00    +0.127 A 
ATOM      2  C   UNL A   1      80.332  85.173  87.152  0.00  0.00    -0.009 A 
ATOM      3  C   UNL A   1      80.098  86.662  87.062  0.00  0.00    +0.048 C 
ATOM      4  C   UNL A   1      81.707  84.835  87.122  0.00  0.00    +0.007 A 
ATOM      5  C   UNL A   1      82.145  83.520  87.167  0.00  0.00    +0.001 A 
ATOM      6  C   UNL A   1      81.217  82.495  87.240  0.00  0.00    +0.007 A 
ATOM      7  C   UNL A   1      79.842  82.778  87.249  0.00  0.00    -0.009 A 
ATOM      8  C   UNL A   1      78.885  81.614  87.326  0.00  0.00    +0.048 C 
ENDROOT
BRANCH   1   9
ATOM      9  O   UNL A   1      78.002  84.203  87.144  0.00  0.00    -0.486 OA
BRANCH   9  10
ATOM     10  C   UNL A   1      77.342  84.727  88.281  0.00  0.00    +0.282 C 
BRANCH  10  12
ATOM     11  C   UNL A   1      75.456  83.155  87.923  0.00  0.00    +0.067 C 
ATOM     12  C   UNL A   1      75.807  84.616  88.219  0.00  0.00    +0.096 C 
BRANCH  12  13
ATOM     13  N   UNL A   1      75.232  85.469  87.170  0.00  0.00    +0.223 N 
ATOM     14  H   UNL A   1      74.222  85.335  87.138  0.00  0.00    +0.200 HD
ATOM     15  H   UNL A   1      75.638  85.218  86.268  0.00  0.00    +0.200 HD
ATOM     16  H   UNL A   1      75.440  86.446  87.376  0.00  0.00    +0.200 HD
ENDBRANCH  12  13
ENDBRANCH  10  12
ENDBRANCH   9  10
ENDBRANCH   1   9
TORSDOF 4
ENDMDL
MODEL 3
REMARK VINA RESULT:      -6.0      3.059      5.164
REMARK  Name = mexiletine.pdb
REMARK  7 active torsions:
REMARK  status: ('A' for Active; 'I' for Inactive)
REMARK    1  A    between atoms: N_1  and  C_12
REMARK    2  A    between atoms: C_2  and  O_13
REMARK    3  A    between atoms: C_3  and  C_4
REMARK    4  A    between atoms: C_8  and  C_9
REMARK    5  A    between atoms: C_10  and  C_12
REMARK    6  A    between atoms: C_10  and  O_13
REMARK    7  A    between atoms: C_11  and  C_12
REMARK                            x       y       z     vdW  Elec       q    Type
REMARK                         _______ _______ _______ _____ _____    ______ ____
ROOT
ATOM      1  C   UNL A   1      80.276  85.523  86.747  0.00  0.00    +0.127 A 
ATOM      2  C   UNL A   1      79.140  86.194  86.232  0.00  0.00    -0.009 A 
ATOM      3  C   UNL A   1      78.827  87.671  86.238  0.00  0.00    +0.048 C 
ATOM      4  C   UNL A   1      78.089  85.416  85.690  0.00  0.00    +0.007 A 
ATOM      5  C   UNL A   1      78.158  84.033  85.613  0.00  0.00    +0.001 A 
ATOM      6  C   UNL A   1      79.285  83.380  86.082  0.00  0.00    +0.007 A 
ATOM      7  C   UNL A   1      80.345  84.105  86.650  0.00  0.00    -0.009 A 
ATOM      8  C   UNL A   1      81.541  83.332  87.144  0.00  0.00    +0.048 C 
ENDROOT
BRANCH   1   9
ATOM      9  O   UNL A   1      81.380  86.057  87.388  0.00  0.00    -0.486 OA
BRANCH   9  10
ATOM     10  C   UNL A   1      82.245  86.877  86.624  0.00  0.00    +0.282 C 
BRANCH  10  12
ATOM     11  C   UNL A   1      81.732  88.332  88.568  0.00  0.00    +0.067 C 
ATOM     12  C   UNL A   1      82.503  88.263  87.246  0.00  0.00    +0.096 C 
BRANCH  12  13
ATOM     13  N   UNL A   1      82.054  89.355  86.371  0.00  0.00    +0.223 N 
ATOM     14  H   UNL A   1      82.533  89.290  85.474  0.00  0.00    +0.200 HD
ATOM     15  H   UNL A   1      82.269  90.251  86.808  0.00  0.00    +0.200 HD
ATOM     16  H   UNL A   1      81.047  89.281  86.226  0.00  0.00    +0.200 HD
ENDBRANCH  12  13
ENDBRANCH  10  12
ENDBRANCH   9  10
ENDBRANCH   1   9
TORSDOF 4
ENDMDL
MODEL 4
REMARK VINA RESULT:      -5.9      1.810      3.849
REMARK  Name = mexiletine.pdb
REMARK  7 active torsions:
REMARK  status: ('A' for Active; 'I' for Inactive)
REMARK    1  A    between atoms: N_1  and  C_12
REMARK    2  A    between atoms: C_2  and  O_13
REMARK    3  A    between atoms: C_3  and  C_4
REMARK    4  A    between atoms: C_8  and  C_9
REMARK    5  A    between atoms: C_10  and  C_12
REMARK    6  A    between atoms: C_10  and  O_13
REMARK    7  A    between atoms: C_11  and  C_12
REMARK                            x       y       z     vdW  Elec       q    Type
REMARK                         _______ _______ _______ _____ _____    ______ ____
ROOT
ATOM      1  C   UNL A   1      79.805  83.729  86.734  0.00  0.00    +0.127 A 
ATOM      2  C   UNL A   1      80.885  82.909  87.143  0.00  0.00    -0.009 A 
ATOM      3  C   UNL A   1      82.368  83.161  87.021  0.00  0.00    +0.048 C 
ATOM      4  C   UNL A   1      80.592  81.633  87.684  0.00  0.00    +0.007 A 
ATOM      5  C   UNL A   1      79.291  81.187  87.859  0.00  0.00    +0.001 A 
ATOM      6  C   UNL A   1      78.235  82.005  87.493  0.00  0.00    +0.007 A 
ATOM      7  C   UNL A   1      78.474  83.269  86.931  0.00  0.00    -0.009 A 
ATOM      8  C   UNL A   1      77.278  84.107  86.552  0.00  0.00    +0.048 C 
ENDROOT
BRANCH   1   9
ATOM      9  O   UNL A   1      79.845  84.966  86.114  0.00  0.00    -0.486 OA
BRANCH   9  10
ATOM     10  C   UNL A   1      80.327  86.060  86.870  0.00  0.00    +0.282 C 
BRANCH  10  12
ATOM     11  C   UNL A   1      80.273  88.490  87.368  0.00  0.00    +0.067 C 
ATOM     12  C   UNL A   1      79.900  87.435  86.323  0.00  0.00    +0.096 C 
BRANCH  12  13
ATOM     13  N   UNL A   1      78.455  87.504  86.066  0.00  0.00    +0.223 N 
ATOM     14  H   UNL A   1      78.141  86.627  85.651  0.00  0.00    +0.200 HD
ATOM     15  H   UNL A   1      78.259  88.273  85.425  0.00  0.00    +0.200 HD
ATOM     16  H   UNL A   1      77.961  87.660  86.945  0.00  0.00    +0.200 HD
ENDBRANCH  12  13
ENDBRANCH  10  12
ENDBRANCH   9  10
ENDBRANCH   1   9
TORSDOF 4
ENDMDL
MODEL 5
REMARK VINA RESULT:      -5.9      3.078      4.714
REMARK  Name = mexiletine.pdb
REMARK  7 active torsions:
REMARK  status: ('A' for Active; 'I' for Inactive)
REMARK    1  A    between atoms: N_1  and  C_12
REMARK    2  A    between atoms: C_2  and  O_13
REMARK    3  A    between atoms: C_3  and  C_4
REMARK    4  A    between atoms: C_8  and  C_9
REMARK    5  A    between atoms: C_10  and  C_12
REMARK    6  A    between atoms: C_10  and  O_13
REMARK    7  A    between atoms: C_11  and  C_12
REMARK                            x       y       z     vdW  Elec       q    Type
REMARK                         _______ _______ _______ _____ _____    ______ ____
ROOT
ATOM      1  C   UNL A   1      80.034  85.468  86.882  0.00  0.00    +0.127 A 
ATOM      2  C   UNL A   1      80.099  84.058  86.769  0.00  0.00    -0.009 A 
ATOM      3  C   UNL A   1      81.113  83.105  87.355  0.00  0.00    +0.048 C 
ATOM      4  C   UNL A   1      79.150  83.405  85.947  0.00  0.00    +0.007 A 
ATOM      5  C   UNL A   1      78.144  84.097  85.288  0.00  0.00    +0.001 A 
ATOM      6  C   UNL A   1      78.058  85.472  85.429  0.00  0.00    +0.007 A 
ATOM      7  C   UNL A   1      78.990  86.168  86.216  0.00  0.00    -0.009 A 
ATOM      8  C   UNL A   1      78.841  87.665  86.323  0.00  0.00    +0.048 C 
ENDROOT
BRANCH   1   9
ATOM      9  O   UNL A   1      80.889  86.323  87.556  0.00  0.00    -0.486 OA
BRANCH   9  10
ATOM     10  C   UNL A   1      82.118  86.643  86.931  0.00  0.00    +0.282 C 
BRANCH  10  12
ATOM     11  C   UNL A   1      81.899  88.633  88.397  0.00  0.00    +0.067 C 
ATOM     12  C   UNL A   1      82.546  88.112  87.110  0.00  0.00    +0.096 C 
BRANCH  12  13
ATOM     13  N   UNL A   1      82.120  88.954  85.984  0.00  0.00    +0.223 N 
ATOM     14  H   UNL A   1      81.169  88.704  85.713  0.00  0.00    +0.200 HD
ATOM     15  H   UNL A   1      82.749  88.809  85.194  0.00  0.00    +0.200 HD
ATOM     16  H   UNL A   1      82.146  89.934  86.264  0.00  0.00    +0.200 HD
ENDBRANCH  12  13
ENDBRANCH  10  12
ENDBRANCH   9  10
ENDBRANCH   1   9
TORSDOF 4
ENDMDL
MODEL 6
REMARK VINA RESULT:      -5.9     16.996     17.746
REMARK  Name = mexiletine.pdb
REMARK  7 active torsions:
REMARK  status: ('A' for Active; 'I' for Inactive)
REMARK    1  A    between atoms: N_1  and  C_12
REMARK    2  A    between atoms: C_2  and  O_13
REMARK    3  A    between atoms: C_3  and  C_4
REMARK    4  A    between atoms: C_8  and  C_9
REMARK    5  A    between atoms: C_10  and  C_12
REMARK    6  A    between atoms: C_10  and  O_13
REMARK    7  A    between atoms: C_11  and  C_12
REMARK                            x       y       z     vdW  Elec       q    Type
REMARK                         _______ _______ _______ _____ _____    ______ ____
ROOT
ATOM      1  C   UNL A   1      79.587  84.039 104.653  0.00  0.00    +0.127 A 
ATOM      2  C   UNL A   1      80.548  83.304 103.917  0.00  0.00    -0.009 A 
ATOM      3  C   UNL A   1      81.867  82.736 104.381  0.00  0.00    +0.048 C 
ATOM      4  C   UNL A   1      80.325  83.105 102.533  0.00  0.00    +0.007 A 
ATOM      5  C   UNL A   1      79.186  83.571 101.894  0.00  0.00    +0.001 A 
ATOM      6  C   UNL A   1      78.229  84.257 102.622  0.00  0.00    +0.007 A 
ATOM      7  C   UNL A   1      78.414  84.500 103.992  0.00  0.00    -0.009 A 
ATOM      8  C   UNL A   1      77.335  85.257 104.725  0.00  0.00    +0.048 C 
ENDROOT
BRANCH   1   9
ATOM      9  O   UNL A   1      79.624  84.424 105.982  0.00  0.00    -0.486 OA
BRANCH   9  10
ATOM     10  C   UNL A   1      79.612  83.400 106.958  0.00  0.00    +0.282 C 
BRANCH  10  12
ATOM     11  C   UNL A   1      77.603  82.445 108.057  0.00  0.00    +0.067 C 
ATOM     12  C   UNL A   1      78.461  82.390 106.790  0.00  0.00    +0.096 C 
BRANCH  12  13
ATOM     13  N   UNL A   1      78.952  81.018 106.603  0.00  0.00    +0.223 N 
ATOM     14  H   UNL A   1      79.095  80.580 107.513  0.00  0.00    +0.200 HD
ATOM     15  H   UNL A   1      79.835  81.039 106.093  0.00  0.00    +0.200 HD
ATOM     16  H   UNL A   1      78.266  80.481 106.072  0.00  0.00    +0.200 HD
ENDBRANCH  12  13
ENDBRANCH  10  12
ENDBRANCH   9  10
ENDBRANCH   1   9
TORSDOF 4
ENDMDL
MODEL 7
REMARK VINA RESULT:      -5.9     17.042     17.837
REMARK  Name = mexiletine.pdb
REMARK  7 active torsions:
REMARK  status: ('A' for Active; 'I' for Inactive)
REMARK    1  A    between atoms: N_1  and  C_12
REMARK    2  A    between atoms: C_2  and  O_13
REMARK    3  A    between atoms: C_3  and  C_4
REMARK    4  A    between atoms: C_8  and  C_9
REMARK    5  A    between atoms: C_10  and  C_12
REMARK    6  A    between atoms: C_10  and  O_13
REMARK    7  A    between atoms: C_11  and  C_12
REMARK                            x       y       z     vdW  Elec       q    Type
REMARK                         _______ _______ _______ _____ _____    ______ ____
ROOT
ATOM      1  C   UNL A   1      79.685  83.931 104.620  0.00  0.00    +0.127 A 
ATOM      2  C   UNL A   1      78.540  84.339 103.894  0.00  0.00    -0.009 A 
ATOM      3  C   UNL A   1      77.306  85.053 104.391  0.00  0.00    +0.048 C 
ATOM      4  C   UNL A   1      78.454  83.992 102.524  0.00  0.00    +0.007 A 
ATOM      5  C   UNL A   1      79.468  83.307 101.871  0.00  0.00    +0.001 A 
ATOM      6  C   UNL A   1      80.604  82.942 102.572  0.00  0.00    +0.007 A 
ATOM      7  C   UNL A   1      80.727  83.242 103.939  0.00  0.00    -0.009 A 
ATOM      8  C   UNL A   1      81.989  82.811 104.643  0.00  0.00    +0.048 C 
ENDROOT
BRANCH   1   9
ATOM      9  O   UNL A   1      79.954  84.083 105.969  0.00  0.00    -0.486 OA
BRANCH   9  10
ATOM     10  C   UNL A   1      78.957  83.670 106.884  0.00  0.00    +0.282 C 
BRANCH  10  12
ATOM     11  C   UNL A   1      80.607  82.144 107.935  0.00  0.00    +0.067 C 
ATOM     12  C   UNL A   1      79.163  82.246 107.433  0.00  0.00    +0.096 C 
BRANCH  12  13
ATOM     13  N   UNL A   1      78.938  81.219 106.407  0.00  0.00    +0.223 N 
ATOM     14  H   UNL A   1      79.485  81.443 105.576  0.00  0.00    +0.200 HD
ATOM     15  H   UNL A   1      77.948  81.191 106.165  0.00  0.00    +0.200 HD
ATOM     16  H   UNL A   1      79.226  80.309 106.768  0.00  0.00    +0.200 HD
ENDBRANCH  12  13
ENDBRANCH  10  12
ENDBRANCH   9  10
ENDBRANCH   1   9
TORSDOF 4
ENDMDL
MODEL 8
REMARK VINA RESULT:      -5.9      2.732      4.653
REMARK  Name = mexiletine.pdb
REMARK  7 active torsions:
REMARK  status: ('A' for Active; 'I' for Inactive)
REMARK    1  A    between atoms: N_1  and  C_12
REMARK    2  A    between atoms: C_2  and  O_13
REMARK    3  A    between atoms: C_3  and  C_4
REMARK    4  A    between atoms: C_8  and  C_9
REMARK    5  A    between atoms: C_10  and  C_12
REMARK    6  A    between atoms: C_10  and  O_13
REMARK    7  A    between atoms: C_11  and  C_12
REMARK                            x       y       z     vdW  Elec       q    Type
REMARK                         _______ _______ _______ _____ _____    ______ ____
ROOT
ATOM      1  C   UNL A   1      79.868  84.395  86.627  0.00  0.00    +0.127 A 
ATOM      2  C   UNL A   1      78.462  84.238  86.549  0.00  0.00    -0.009 A 
ATOM      3  C   UNL A   1      77.408  85.269  86.227  0.00  0.00    +0.048 C 
ATOM      4  C   UNL A   1      77.909  82.977  86.880  0.00  0.00    +0.007 A 
ATOM      5  C   UNL A   1      78.699  81.894  87.234  0.00  0.00    +0.001 A 
ATOM      6  C   UNL A   1      80.075  82.038  87.273  0.00  0.00    +0.007 A 
ATOM      7  C   UNL A   1      80.671  83.275  86.976  0.00  0.00    -0.009 A 
ATOM      8  C   UNL A   1      82.175  83.364  87.042  0.00  0.00    +0.048 C 
ENDROOT
BRANCH   1   9
ATOM      9  O   UNL A   1      80.622  85.539  86.430  0.00  0.00    -0.486 OA
BRANCH   9  10
ATOM     10  C   UNL A   1      80.624  86.505  87.464  0.00  0.00    +0.282 C 
BRANCH  10  12
ATOM     11  C   UNL A   1      82.508  87.427  86.138  0.00  0.00    +0.067 C 
ATOM     12  C   UNL A   1      81.926  87.325  87.551  0.00  0.00    +0.096 C 
BRANCH  12  13
ATOM     13  N   UNL A   1      82.918  86.696  88.434  0.00  0.00    +0.223 N 
ATOM     14  H   UNL A   1      82.945  85.693  88.256  0.00  0.00    +0.200 HD
ATOM     15  H   UNL A   1      82.661  86.863  89.407  0.00  0.00    +0.200 HD
ATOM     16  H   UNL A   1      83.838  87.098  88.251  0.00  0.00    +0.200 HD
ENDBRANCH  12  13
ENDBRANCH  10  12
ENDBRANCH   9  10
ENDBRANCH   1   9
TORSDOF 4
ENDMDL
MODEL 9
REMARK VINA RESULT:      -5.8     23.304     25.583
REMARK  Name = mexiletine.pdb
REMARK  7 active torsions:
REMARK  status: ('A' for Active; 'I' for Inactive)
REMARK    1  A    between atoms: N_1  and  C_12
REMARK    2  A    between atoms: C_2  and  O_13
REMARK    3  A    between atoms: C_3  and  C_4
REMARK    4  A    between atoms: C_8  and  C_9
REMARK    5  A    between atoms: C_10  and  C_12
REMARK    6  A    between atoms: C_10  and  O_13
REMARK    7  A    between atoms: C_11  and  C_12
REMARK                            x       y       z     vdW  Elec       q    Type
REMARK                         _______ _______ _______ _____ _____    ______ ____
ROOT
ATOM      1  C   UNL A   1      58.606  80.720  72.800  0.00  0.00    +0.127 A 
ATOM      2  C   UNL A   1      59.768  80.659  73.606  0.00  0.00    -0.009 A 
ATOM      3  C   UNL A   1      60.581  81.790  74.187  0.00  0.00    +0.048 C 
ATOM      4  C   UNL A   1      60.330  79.388  73.878  0.00  0.00    +0.007 A 
ATOM      5  C   UNL A   1      59.757  78.213  73.415  0.00  0.00    +0.001 A 
ATOM      6  C   UNL A   1      58.600  78.272  72.659  0.00  0.00    +0.007 A 
ATOM      7  C   UNL A   1      58.016  79.509  72.342  0.00  0.00    -0.009 A 
ATOM      8  C   UNL A   1      56.758  79.502  71.511  0.00  0.00    +0.048 C 
ENDROOT
BRANCH   1   9
ATOM      9  O   UNL A   1      57.930  81.837  72.340  0.00  0.00    -0.486 OA
BRANCH   9  10
ATOM     10  C   UNL A   1      57.466  82.763  73.305  0.00  0.00    +0.282 C 
BRANCH  10  12
ATOM     11  C   UNL A   1      55.618  83.319  71.746  0.00  0.00    +0.067 C 
ATOM     12  C   UNL A   1      56.641  83.921  72.713  0.00  0.00    +0.096 C 
BRANCH  12  13
ATOM     13  N   UNL A   1      57.480  84.884  71.986  0.00  0.00    +0.223 N 
ATOM     14  H   UNL A   1      58.165  84.381  71.423  0.00  0.00    +0.200 HD
ATOM     15  H   UNL A   1      57.963  85.485  72.654  0.00  0.00    +0.200 HD
ATOM     16  H   UNL A   1      56.893  85.454  71.378  0.00  0.00    +0.200 HD
ENDBRANCH  12  13
ENDBRANCH  10  12
ENDBRANCH   9  10
ENDBRANCH   1   9
TORSDOF 4
ENDMDL
MODEL 10
REMARK VINA RESULT:      -5.8     17.299     19.109
REMARK  Name = mexiletine.pdb
REMARK  7 active torsions:
REMARK  status: ('A' for Active; 'I' for Inactive)
REMARK    1  A    between atoms: N_1  and  C_12
REMARK    2  A    between atoms: C_2  and  O_13
REMARK    3  A    between atoms: C_3  and  C_4
REMARK    4  A    between atoms: C_8  and  C_9
REMARK    5  A    between atoms: C_10  and  C_12
REMARK    6  A    between atoms: C_10  and  O_13
REMARK    7  A    between atoms: C_11  and  C_12
REMARK                            x       y       z     vdW  Elec       q    Type
REMARK                         _______ _______ _______ _____ _____    ______ ____
ROOT
ATOM      1  C   UNL A   1      97.444  81.740  92.253  0.00  0.00    +0.127 A 
ATOM      2  C   UNL A   1      98.631  81.117  91.798  0.00  0.00    -0.009 A 
ATOM      3  C   UNL A   1      99.932  81.751  91.368  0.00  0.00    +0.048 C 
ATOM      4  C   UNL A   1      98.632  79.710  91.638  0.00  0.00    +0.007 A 
ATOM      5  C   UNL A   1      97.527  78.931  91.948  0.00  0.00    +0.001 A 
ATOM      6  C   UNL A   1      96.379  79.538  92.429  0.00  0.00    +0.007 A 
ATOM      7  C   UNL A   1      96.321  80.932  92.584  0.00  0.00    -0.009 A 
ATOM      8  C   UNL A   1      95.038  81.528  93.108  0.00  0.00    +0.048 C 
ENDROOT
BRANCH   1   9
ATOM      9  O   UNL A   1      97.181  83.090  92.411  0.00  0.00    -0.486 OA
BRANCH   9  10
ATOM     10  C   UNL A   1      97.287  83.913  91.265  0.00  0.00    +0.282 C 
BRANCH  10  12
ATOM     11  C   UNL A   1      95.106  84.908  91.908  0.00  0.00    +0.067 C 
ATOM     12  C   UNL A   1      95.932  84.404  90.720  0.00  0.00    +0.096 C 
BRANCH  12  13
ATOM     13  N   UNL A   1      95.189  83.334  90.039  0.00  0.00    +0.223 N 
ATOM     14  H   UNL A   1      95.340  83.403  89.033  0.00  0.00    +0.200 HD
ATOM     15  H   UNL A   1      94.193  83.430  90.241  0.00  0.00    +0.200 HD
ATOM     16  H   UNL A   1      95.518  82.428  90.372  0.00  0.00    +0.200 HD
ENDBRANCH  12  13
ENDBRANCH  10  12
ENDBRANCH   9  10
ENDBRANCH   1   9
TORSDOF 4
ENDMDL
MODEL 11
REMARK VINA RESULT:      -5.7     17.727     19.693
REMARK  Name = mexiletine.pdb
REMARK  7 active torsions:
REMARK  status: ('A' for Active; 'I' for Inactive)
REMARK    1  A    between atoms: N_1  and  C_12
REMARK    2  A    between atoms: C_2  and  O_13
REMARK    3  A    between atoms: C_3  and  C_4
REMARK    4  A    between atoms: C_8  and  C_9
REMARK    5  A    between atoms: C_10  and  C_12
REMARK    6  A    between atoms: C_10  and  O_13
REMARK    7  A    between atoms: C_11  and  C_12
REMARK                            x       y       z     vdW  Elec       q    Type
REMARK                         _______ _______ _______ _____ _____    ______ ____
ROOT
ATOM      1  C   UNL A   1      97.386  81.956  92.295  0.00  0.00    +0.127 A 
ATOM      2  C   UNL A   1      98.641  81.423  91.911  0.00  0.00    -0.009 A 
ATOM      3  C   UNL A   1      99.928  82.151  91.604  0.00  0.00    +0.048 C 
ATOM      4  C   UNL A   1      98.742  80.026  91.701  0.00  0.00    +0.007 A 
ATOM      5  C   UNL A   1      97.668  79.171  91.898  0.00  0.00    +0.001 A 
ATOM      6  C   UNL A   1      96.452  79.688  92.310  0.00  0.00    +0.007 A 
ATOM      7  C   UNL A   1      96.295  81.069  92.510  0.00  0.00    -0.009 A 
ATOM      8  C   UNL A   1      94.942  81.566  92.955  0.00  0.00    +0.048 C 
ENDROOT
BRANCH   1   9
ATOM      9  O   UNL A   1      97.029  83.280  92.480  0.00  0.00    -0.486 OA
BRANCH   9  10
ATOM     10  C   UNL A   1      97.604  83.964  93.577  0.00  0.00    +0.282 C 
BRANCH  10  12
ATOM     11  C   UNL A   1      97.432  85.846  95.185  0.00  0.00    +0.067 C 
ATOM     12  C   UNL A   1      96.614  84.864  94.341  0.00  0.00    +0.096 C 
BRANCH  12  13
ATOM     13  N   UNL A   1      95.731  84.090  95.224  0.00  0.00    +0.223 N 
ATOM     14  H   UNL A   1      95.296  83.336  94.694  0.00  0.00    +0.200 HD
ATOM     15  H   UNL A   1      95.008  84.702  95.603  0.00  0.00    +0.200 HD
ATOM     16  H   UNL A   1      96.278  83.696  95.990  0.00  0.00    +0.200 HD
ENDBRANCH  12  13
ENDBRANCH  10  12
ENDBRANCH   9  10
ENDBRANCH   1   9
TORSDOF 4
ENDMDL
MODEL 12
REMARK VINA RESULT:      -5.7      1.990      3.772
REMARK  Name = mexiletine.pdb
REMARK  7 active torsions:
REMARK  status: ('A' for Active; 'I' for Inactive)
REMARK    1  A    between atoms: N_1  and  C_12
REMARK    2  A    between atoms: C_2  and  O_13
REMARK    3  A    between atoms: C_3  and  C_4
REMARK    4  A    between atoms: C_8  and  C_9
REMARK    5  A    between atoms: C_10  and  C_12
REMARK    6  A    between atoms: C_10  and  O_13
REMARK    7  A    between atoms: C_11  and  C_12
REMARK                            x       y       z     vdW  Elec       q    Type
REMARK                         _______ _______ _______ _____ _____    ______ ____
ROOT
ATOM      1  C   UNL A   1      81.004  86.416  87.298  0.00  0.00    +0.127 A 
ATOM      2  C   UNL A   1      81.311  87.672  87.877  0.00  0.00    -0.009 A 
ATOM      3  C   UNL A   1      80.662  89.013  87.634  0.00  0.00    +0.048 C 
ATOM      4  C   UNL A   1      82.415  87.753  88.760  0.00  0.00    +0.007 A 
ATOM      5  C   UNL A   1      83.171  86.641  89.100  0.00  0.00    +0.001 A 
ATOM      6  C   UNL A   1      82.847  85.407  88.563  0.00  0.00    +0.007 A 
ATOM      7  C   UNL A   1      81.775  85.279  87.665  0.00  0.00    -0.009 A 
ATOM      8  C   UNL A   1      81.479  83.906  87.115  0.00  0.00    +0.048 C 
ENDROOT
BRANCH   1   9
ATOM      9  O   UNL A   1      80.034  86.110  86.360  0.00  0.00    -0.486 OA
BRANCH   9  10
ATOM     10  C   UNL A   1      78.686  86.363  86.708  0.00  0.00    +0.282 C 
BRANCH  10  12
ATOM     11  C   UNL A   1      78.169  84.302  85.428  0.00  0.00    +0.067 C 
ATOM     12  C   UNL A   1      77.785  85.114  86.668  0.00  0.00    +0.096 C 
BRANCH  12  13
ATOM     13  N   UNL A   1      76.360  85.462  86.591  0.00  0.00    +0.223 N 
ATOM     14  H   UNL A   1      76.085  85.559  85.614  0.00  0.00    +0.200 HD
ATOM     15  H   UNL A   1      76.198  86.344  87.079  0.00  0.00    +0.200 HD
ATOM     16  H   UNL A   1      75.806  84.726  87.029  0.00  0.00    +0.200 HD
ENDBRANCH  12  13
ENDBRANCH  10  12
ENDBRANCH   9  10
ENDBRANCH   1   9
TORSDOF 4
ENDMDL
MODEL 13
REMARK VINA RESULT:      -5.7      2.972      4.649
REMARK  Name = mexiletine.pdb
REMARK  7 active torsions:
REMARK  status: ('A' for Active; 'I' for Inactive)
REMARK    1  A    between atoms: N_1  and  C_12
REMARK    2  A    between atoms: C_2  and  O_13
REMARK    3  A    between atoms: C_3  and  C_4
REMARK    4  A    between atoms: C_8  and  C_9
REMARK    5  A    between atoms: C_10  and  C_12
REMARK    6  A    between atoms: C_10  and  O_13
REMARK    7  A    between atoms: C_11  and  C_12
REMARK                            x       y       z     vdW  Elec       q    Type
REMARK                         _______ _______ _______ _____ _____    ______ ____
ROOT
ATOM      1  C   UNL A   1      80.395  85.964  87.538  0.00  0.00    +0.127 A 
ATOM      2  C   UNL A   1      79.334  85.417  86.776  0.00  0.00    -0.009 A 
ATOM      3  C   UNL A   1      78.012  86.043  86.403  0.00  0.00    +0.048 C 
ATOM      4  C   UNL A   1      79.443  84.074  86.339  0.00  0.00    +0.007 A 
ATOM      5  C   UNL A   1      80.566  83.303  86.599  0.00  0.00    +0.001 A 
ATOM      6  C   UNL A   1      81.619  83.851  87.312  0.00  0.00    +0.007 A 
ATOM      7  C   UNL A   1      81.549  85.170  87.787  0.00  0.00    -0.009 A 
ATOM      8  C   UNL A   1      82.729  85.703  88.559  0.00  0.00    +0.048 C 
ENDROOT
BRANCH   1   9
ATOM      9  O   UNL A   1      80.479  87.210  88.134  0.00  0.00    -0.486 OA
BRANCH   9  10
ATOM     10  C   UNL A   1      80.608  88.333  87.282  0.00  0.00    +0.282 C 
BRANCH  10  12
ATOM     11  C   UNL A   1      81.674  89.148  89.370  0.00  0.00    +0.067 C 
ATOM     12  C   UNL A   1      81.386  89.506  87.909  0.00  0.00    +0.096 C 
BRANCH  12  13
ATOM     13  N   UNL A   1      80.625  90.762  87.863  0.00  0.00    +0.223 N 
ATOM     14  H   UNL A   1      79.642  90.558  87.688  0.00  0.00    +0.200 HD
ATOM     15  H   UNL A   1      80.989  91.353  87.115  0.00  0.00    +0.200 HD
ATOM     16  H   UNL A   1      80.717  91.248  88.755  0.00  0.00    +0.200 HD
ENDBRANCH  12  13
ENDBRANCH  10  12
ENDBRANCH   9  10
ENDBRANCH   1   9
TORSDOF 4
ENDMDL
MODEL 14
REMARK VINA RESULT:      -5.6     13.294     15.525
REMARK  Name = mexiletine.pdb
REMARK  7 active torsions:
REMARK  status: ('A' for Active; 'I' for Inactive)
REMARK    1  A    between atoms: N_1  and  C_12
REMARK    2  A    between atoms: C_2  and  O_13
REMARK    3  A    between atoms: C_3  and  C_4
REMARK    4  A    between atoms: C_8  and  C_9
REMARK    5  A    between atoms: C_10  and  C_12
REMARK    6  A    between atoms: C_10  and  O_13
REMARK    7  A    between atoms: C_11  and  C_12
REMARK                            x       y       z     vdW  Elec       q    Type
REMARK                         _______ _______ _______ _____ _____    ______ ____
ROOT
ATOM      1  C   UNL A   1      63.523  83.906  86.400  0.00  0.00    +0.127 A 
ATOM      2  C   UNL A   1      64.785  84.281  85.877  0.00  0.00    -0.009 A 
ATOM      3  C   UNL A   1      66.163  83.886  86.348  0.00  0.00    +0.048 C 
ATOM      4  C   UNL A   1      64.819  85.209  84.808  0.00  0.00    +0.007 A 
ATOM      5  C   UNL A   1      63.664  85.724  84.240  0.00  0.00    +0.001 A 
ATOM      6  C   UNL A   1      62.430  85.328  84.728  0.00  0.00    +0.007 A 
ATOM      7  C   UNL A   1      62.343  84.427  85.801  0.00  0.00    -0.009 A 
ATOM      8  C   UNL A   1      60.968  84.041  86.286  0.00  0.00    +0.048 C 
ENDROOT
BRANCH   1   9
ATOM      9  O   UNL A   1      63.243  83.086  87.480  0.00  0.00    -0.486 OA
BRANCH   9  10
ATOM     10  C   UNL A   1      63.635  81.729  87.387  0.00  0.00    +0.282 C 
BRANCH  10  12
ATOM     11  C   UNL A   1      64.623  82.370  89.571  0.00  0.00    +0.067 C 
ATOM     12  C   UNL A   1      64.289  81.178  88.669  0.00  0.00    +0.096 C 
BRANCH  12  13
ATOM     13  N   UNL A   1      65.521  80.431  88.384  0.00  0.00    +0.223 N 
ATOM     14  H   UNL A   1      65.284  79.523  87.986  0.00  0.00    +0.200 HD
ATOM     15  H   UNL A   1      66.045  80.297  89.250  0.00  0.00    +0.200 HD
ATOM     16  H   UNL A   1      66.091  80.956  87.720  0.00  0.00    +0.200 HD
ENDBRANCH  12  13
ENDBRANCH  10  12
ENDBRANCH   9  10
ENDBRANCH   1   9
TORSDOF 4
ENDMDL
MODEL 15
REMARK VINA RESULT:      -5.6      2.784      4.128
REMARK  Name = mexiletine.pdb
REMARK  7 active torsions:
REMARK  status: ('A' for Active; 'I' for Inactive)
REMARK    1  A    between atoms: N_1  and  C_12
REMARK    2  A    between atoms: C_2  and  O_13
REMARK    3  A    between atoms: C_3  and  C_4
REMARK    4  A    between atoms: C_8  and  C_9
REMARK    5  A    between atoms: C_10  and  C_12
REMARK    6  A    between atoms: C_10  and  O_13
REMARK    7  A    between atoms: C_11  and  C_12
REMARK                            x       y       z     vdW  Elec       q    Type
REMARK                         _______ _______ _______ _____ _____    ______ ____
ROOT
ATOM      1  C   UNL A   1      80.294  85.394  86.880  0.00  0.00    +0.127 A 
ATOM      2  C   UNL A   1      81.166  86.300  87.531  0.00  0.00    -0.009 A 
ATOM      3  C   UNL A   1      82.418  86.010  88.323  0.00  0.00    +0.048 C 
ATOM      4  C   UNL A   1      80.828  87.676  87.530  0.00  0.00    +0.007 A 
ATOM      5  C   UNL A   1      79.700  88.158  86.884  0.00  0.00    +0.001 A 
ATOM      6  C   UNL A   1      78.868  87.276  86.216  0.00  0.00    +0.007 A 
ATOM      7  C   UNL A   1      79.147  85.900  86.207  0.00  0.00    -0.009 A 
ATOM      8  C   UNL A   1      78.197  84.994  85.464  0.00  0.00    +0.048 C 
ENDROOT
BRANCH   1   9
ATOM      9  O   UNL A   1      80.372  84.014  86.815  0.00  0.00    -0.486 OA
BRANCH   9  10
ATOM     10  C   UNL A   1      80.231  83.295  88.026  0.00  0.00    +0.282 C 
BRANCH  10  12
ATOM     11  C   UNL A   1      78.537  81.678  87.206  0.00  0.00    +0.067 C 
ATOM     12  C   UNL A   1      79.930  81.796  87.831  0.00  0.00    +0.096 C 
BRANCH  12  13
ATOM     13  N   UNL A   1      79.950  81.058  89.101  0.00  0.00    +0.223 N 
ATOM     14  H   UNL A   1      80.912  80.818  89.340  0.00  0.00    +0.200 HD
ATOM     15  H   UNL A   1      79.399  80.204  89.007  0.00  0.00    +0.200 HD
ATOM     16  H   UNL A   1      79.552  81.639  89.838  0.00  0.00    +0.200 HD
ENDBRANCH  12  13
ENDBRANCH  10  12
ENDBRANCH   9  10
ENDBRANCH   1   9
TORSDOF 4
ENDMDL
MODEL 16
REMARK VINA RESULT:      -5.6      3.773      5.550
REMARK  Name = mexiletine.pdb
REMARK  7 active torsions:
REMARK  status: ('A' for Active; 'I' for Inactive)
REMARK    1  A    between atoms: N_1  and  C_12
REMARK    2  A    between atoms: C_2  and  O_13
REMARK    3  A    between atoms: C_3  and  C_4
REMARK    4  A    between atoms: C_8  and  C_9
REMARK    5  A    between atoms: C_10  and  C_12
REMARK    6  A    between atoms: C_10  and  O_13
REMARK    7  A    between atoms: C_11  and  C_12
REMARK                            x       y       z     vdW  Elec       q    Type
REMARK                         _______ _______ _______ _____ _____    ______ ____
ROOT
ATOM      1  C   UNL A   1      79.756  81.903  88.054  0.00  0.00    +0.127 A 
ATOM      2  C   UNL A   1      80.607  82.677  87.227  0.00  0.00    -0.009 A 
ATOM      3  C   UNL A   1      82.114  82.761  87.231  0.00  0.00    +0.048 C 
ATOM      4  C   UNL A   1      80.014  83.566  86.298  0.00  0.00    +0.007 A 
ATOM      5  C   UNL A   1      78.639  83.668  86.150  0.00  0.00    +0.001 A 
ATOM      6  C   UNL A   1      77.808  82.884  86.932  0.00  0.00    +0.007 A 
ATOM      7  C   UNL A   1      78.348  82.004  87.884  0.00  0.00    -0.009 A 
ATOM      8  C   UNL A   1      77.387  81.182  88.706  0.00  0.00    +0.048 C 
ENDROOT
BRANCH   1   9
ATOM      9  O   UNL A   1      80.099  81.035  89.076  0.00  0.00    -0.486 OA
BRANCH   9  10
ATOM     10  C   UNL A   1      80.676  79.795  88.713  0.00  0.00    +0.282 C 
BRANCH  10  12
ATOM     11  C   UNL A   1      82.350  78.065  89.315  0.00  0.00    +0.067 C 
ATOM     12  C   UNL A   1      81.313  79.033  89.891  0.00  0.00    +0.096 C 
BRANCH  12  13
ATOM     13  N   UNL A   1      80.320  78.271  90.660  0.00  0.00    +0.223 N 
ATOM     14  H   UNL A   1      79.918  77.544  90.069  0.00  0.00    +0.200 HD
ATOM     15  H   UNL A   1      79.581  78.899  90.978  0.00  0.00    +0.200 HD
ATOM     16  H   UNL A   1      80.772  77.842  91.467  0.00  0.00    +0.200 HD
ENDBRANCH  12  13
ENDBRANCH  10  12
ENDBRANCH   9  10
ENDBRANCH   1   9
TORSDOF 4
ENDMDL
MODEL 17
REMARK VINA RESULT:      -5.6     23.224     25.424
REMARK  Name = mexiletine.pdb
REMARK  7 active torsions:
REMARK  status: ('A' for Active; 'I' for Inactive)
REMARK    1  A    between atoms: N_1  and  C_12
REMARK    2  A    between atoms: C_2  and  O_13
REMARK    3  A    between atoms: C_3  and  C_4
REMARK    4  A    between atoms: C_8  and  C_9
REMARK    5  A    between atoms: C_10  and  C_12
REMARK    6  A    between atoms: C_10  and  O_13
REMARK    7  A    between atoms: C_11  and  C_12
REMARK                            x       y       z     vdW  Elec       q    Type
REMARK                         _______ _______ _______ _____ _____    ______ ____
ROOT
ATOM      1  C   UNL A   1      58.678  80.753  72.864  0.00  0.00    +0.127 A 
ATOM      2  C   UNL A   1      58.010  79.608  72.366  0.00  0.00    -0.009 A 
ATOM      3  C   UNL A   1      56.751  79.529  71.537  0.00  0.00    +0.048 C 
ATOM      4  C   UNL A   1      58.508  78.331  72.723  0.00  0.00    +0.007 A 
ATOM      5  C   UNL A   1      59.642  78.174  73.505  0.00  0.00    +0.001 A 
ATOM      6  C   UNL A   1      60.316  79.293  73.961  0.00  0.00    +0.007 A 
ATOM      7  C   UNL A   1      59.849  80.582  73.653  0.00  0.00    -0.009 A 
ATOM      8  C   UNL A   1      60.629  81.758  74.185  0.00  0.00    +0.048 C 
ENDROOT
BRANCH   1   9
ATOM      9  O   UNL A   1      58.337  82.086  72.717  0.00  0.00    -0.486 OA
BRANCH   9  10
ATOM     10  C   UNL A   1      57.390  82.620  73.623  0.00  0.00    +0.282 C 
BRANCH  10  12
ATOM     11  C   UNL A   1      55.439  83.194  72.200  0.00  0.00    +0.067 C 
ATOM     12  C   UNL A   1      56.567  83.789  73.048  0.00  0.00    +0.096 C 
BRANCH  12  13
ATOM     13  N   UNL A   1      57.381  84.679  72.209  0.00  0.00    +0.223 N 
ATOM     14  H   UNL A   1      58.369  84.487  72.368  0.00  0.00    +0.200 HD
ATOM     15  H   UNL A   1      57.179  85.650  72.447  0.00  0.00    +0.200 HD
ATOM     16  H   UNL A   1      57.157  84.517  71.227  0.00  0.00    +0.200 HD
ENDBRANCH  12  13
ENDBRANCH  10  12
ENDBRANCH   9  10
ENDBRANCH   1   9
TORSDOF 4
ENDMDL
MODEL 18
REMARK VINA RESULT:      -5.6      2.732      3.802
REMARK  Name = mexiletine.pdb
REMARK  7 active torsions:
REMARK  status: ('A' for Active; 'I' for Inactive)
REMARK    1  A    between atoms: N_1  and  C_12
REMARK    2  A    between atoms: C_2  and  O_13
REMARK    3  A    between atoms: C_3  and  C_4
REMARK    4  A    between atoms: C_8  and  C_9
REMARK    5  A    between atoms: C_10  and  C_12
REMARK    6  A    between atoms: C_10  and  O_13
REMARK    7  A    between atoms: C_11  and  C_12
REMARK                            x       y       z     vdW  Elec       q    Type
REMARK                         _______ _______ _______ _____ _____    ______ ____
ROOT
ATOM      1  C   UNL A   1      77.483  83.307  87.666  0.00  0.00    +0.127 A 
ATOM      2  C   UNL A   1      78.681  82.944  87.005  0.00  0.00    -0.009 A 
ATOM      3  C   UNL A   1      79.617  81.796  87.297  0.00  0.00    +0.048 C 
ATOM      4  C   UNL A   1      79.152  83.779  85.962  0.00  0.00    +0.007 A 
ATOM      5  C   UNL A   1      78.458  84.906  85.549  0.00  0.00    +0.001 A 
ATOM      6  C   UNL A   1      77.267  85.239  86.171  0.00  0.00    +0.007 A 
ATOM      7  C   UNL A   1      76.770  84.457  87.226  0.00  0.00    -0.009 A 
ATOM      8  C   UNL A   1      75.470  84.878  87.862  0.00  0.00    +0.048 C 
ENDROOT
BRANCH   1   9
ATOM      9  O   UNL A   1      76.876  82.699  88.751  0.00  0.00    -0.486 OA
BRANCH   9  10
ATOM     10  C   UNL A   1      76.120  81.529  88.505  0.00  0.00    +0.282 C 
BRANCH  10  12
ATOM     11  C   UNL A   1      76.904  79.296  87.758  0.00  0.00    +0.067 C 
ATOM     12  C   UNL A   1      76.810  80.231  88.967  0.00  0.00    +0.096 C 
BRANCH  12  13
ATOM     13  N   UNL A   1      76.062  79.557  90.038  0.00  0.00    +0.223 N 
ATOM     14  H   UNL A   1      76.532  79.710  90.929  0.00  0.00    +0.200 HD
ATOM     15  H   UNL A   1      76.018  78.556  89.844  0.00  0.00    +0.200 HD
ATOM     16  H   UNL A   1      75.116  79.937  90.082  0.00  0.00    +0.200 HD
ENDBRANCH  12  13
ENDBRANCH  10  12
ENDBRANCH   9  10
ENDBRANCH   1   9
TORSDOF 4
ENDMDL
MODEL 19
REMARK VINA RESULT:      -5.6      3.014      4.871
REMARK  Name = mexiletine.pdb
REMARK  7 active torsions:
REMARK  status: ('A' for Active; 'I' for Inactive)
REMARK    1  A    between atoms: N_1  and  C_12
REMARK    2  A    between atoms: C_2  and  O_13
REMARK    3  A    between atoms: C_3  and  C_4
REMARK    4  A    between atoms: C_8  and  C_9
REMARK    5  A    between atoms: C_10  and  C_12
REMARK    6  A    between atoms: C_10  and  O_13
REMARK    7  A    between atoms: C_11  and  C_12
REMARK                            x       y       z     vdW  Elec       q    Type
REMARK                         _______ _______ _______ _____ _____    ______ ____
ROOT
ATOM      1  C   UNL A   1      80.523  86.026  87.130  0.00  0.00    +0.127 A 
ATOM      2  C   UNL A   1      81.531  85.206  87.692  0.00  0.00    -0.009 A 
ATOM      3  C   UNL A   1      82.743  85.608  88.497  0.00  0.00    +0.048 C 
ATOM      4  C   UNL A   1      81.486  83.814  87.434  0.00  0.00    +0.007 A 
ATOM      5  C   UNL A   1      80.470  83.235  86.688  0.00  0.00    +0.001 A 
ATOM      6  C   UNL A   1      79.464  84.032  86.171  0.00  0.00    +0.007 A 
ATOM      7  C   UNL A   1      79.477  85.421  86.379  0.00  0.00    -0.009 A 
ATOM      8  C   UNL A   1      78.353  86.232  85.785  0.00  0.00    +0.048 C 
ENDROOT
BRANCH   1   9
ATOM      9  O   UNL A   1      80.403  87.404  87.177  0.00  0.00    -0.486 OA
BRANCH   9  10
ATOM     10  C   UNL A   1      81.232  88.162  86.316  0.00  0.00    +0.282 C 
BRANCH  10  12
ATOM     11  C   UNL A   1      82.748  89.269  87.939  0.00  0.00    +0.067 C 
ATOM     12  C   UNL A   1      81.656  89.525  86.896  0.00  0.00    +0.096 C 
BRANCH  12  13
ATOM     13  N   UNL A   1      80.535  90.226  87.537  0.00  0.00    +0.223 N 
ATOM     14  H   UNL A   1      80.889  91.030  88.055  0.00  0.00    +0.200 HD
ATOM     15  H   UNL A   1      80.059  89.591  88.178  0.00  0.00    +0.200 HD
ATOM     16  H   UNL A   1      79.880  90.542  86.823  0.00  0.00    +0.200 HD
ENDBRANCH  12  13
ENDBRANCH  10  12
ENDBRANCH   9  10
ENDBRANCH   1   9
TORSDOF 4
ENDMDL
MODEL 20
REMARK VINA RESULT:      -5.5     13.307     15.575
REMARK  Name = mexiletine.pdb
REMARK  7 active torsions:
REMARK  status: ('A' for Active; 'I' for Inactive)
REMARK    1  A    between atoms: N_1  and  C_12
REMARK    2  A    between atoms: C_2  and  O_13
REMARK    3  A    between atoms: C_3  and  C_4
REMARK    4  A    between atoms: C_8  and  C_9
REMARK    5  A    between atoms: C_10  and  C_12
REMARK    6  A    between atoms: C_10  and  O_13
REMARK    7  A    between atoms: C_11  and  C_12
REMARK                            x       y       z     vdW  Elec       q    Type
REMARK                         _______ _______ _______ _____ _____    ______ ____
ROOT
ATOM      1  C   UNL A   1      63.541  83.938  86.422  0.00  0.00    +0.127 A 
ATOM      2  C   UNL A   1      62.266  84.317  85.938  0.00  0.00    -0.009 A 
ATOM      3  C   UNL A   1      60.901  83.952  86.471  0.00  0.00    +0.048 C 
ATOM      4  C   UNL A   1      62.199  85.087  84.751  0.00  0.00    +0.007 A 
ATOM      5  C   UNL A   1      63.337  85.509  84.081  0.00  0.00    +0.001 A 
ATOM      6  C   UNL A   1      64.585  85.169  84.576  0.00  0.00    +0.007 A 
ATOM      7  C   UNL A   1      64.703  84.388  85.737  0.00  0.00    -0.009 A 
ATOM      8  C   UNL A   1      66.092  84.051  86.219  0.00  0.00    +0.048 C 
ENDROOT
BRANCH   1   9
ATOM      9  O   UNL A   1      63.852  83.132  87.504  0.00  0.00    -0.486 OA
BRANCH   9  10
ATOM     10  C   UNL A   1      63.731  81.733  87.331  0.00  0.00    +0.282 C 
BRANCH  10  12
ATOM     11  C   UNL A   1      64.056  81.809  89.790  0.00  0.00    +0.067 C 
ATOM     12  C   UNL A   1      64.178  80.911  88.555  0.00  0.00    +0.096 C 
BRANCH  12  13
ATOM     13  N   UNL A   1      65.568  80.449  88.434  0.00  0.00    +0.223 N 
ATOM     14  H   UNL A   1      65.677  79.566  88.933  0.00  0.00    +0.200 HD
ATOM     15  H   UNL A   1      66.195  81.146  88.835  0.00  0.00    +0.200 HD
ATOM     16  H   UNL A   1      65.796  80.313  87.449  0.00  0.00    +0.200 HD
ENDBRANCH  12  13
ENDBRANCH  10  12
ENDBRANCH   9  10
ENDBRANCH   1   9
TORSDOF 4
ENDMDL
