MODEL 1
REMARK VINA RESULT:      -5.3      0.000      0.000
REMARK  Name = mexiletine.pdb
REMARK  7 active torsions:
REMARK  status: ('A' for Active; 'I' for Inactive)
REMARK    1  A    between atoms: N_1  and  C_12
REMARK    2  A    between atoms: C_2  and  O_13
REMARK    3  A    between atoms: C_3  and  C_4
REMARK    4  A    between atoms: C_8  and  C_9
REMARK    5  A    between atoms: C_10  and  C_12
REMARK    6  A    between atoms: C_10  and  O_13
REMARK    7  A    between atoms: C_11  and  C_12
REMARK                            x       y       z     vdW  Elec       q    Type
REMARK                         _______ _______ _______ _____ _____    ______ ____
ROOT
ATOM      1  C   UNL A   1      88.528 104.303 117.393  0.00  0.00    +0.127 A 
ATOM      2  C   UNL A   1      89.811 103.877 117.813  0.00  0.00    -0.009 A 
ATOM      3  C   UNL A   1      91.113 104.642 117.811  0.00  0.00    +0.048 C 
ATOM      4  C   UNL A   1      89.969 102.535 118.236  0.00  0.00    +0.007 A 
ATOM      5  C   UNL A   1      88.904 101.649 118.288  0.00  0.00    +0.001 A 
ATOM      6  C   UNL A   1      87.642 102.076 117.913  0.00  0.00    +0.007 A 
ATOM      7  C   UNL A   1      87.439 103.391 117.464  0.00  0.00    -0.009 A 
ATOM      8  C   UNL A   1      86.040 103.791 117.067  0.00  0.00    +0.048 C 
ENDROOT
BRANCH   1   9
ATOM      9  O   UNL A   1      88.151 105.528 116.870  0.00  0.00    -0.486 OA
BRANCH   9  10
ATOM     10  C   UNL A   1      88.141 106.637 117.749  0.00  0.00    +0.282 C 
BRANCH  10  12
ATOM     11  C   UNL A   1      89.993 108.096 118.523  0.00  0.00    +0.067 C 
ATOM     12  C   UNL A   1      89.090 107.776 117.328  0.00  0.00    +0.096 C 
BRANCH  12  13
ATOM     13  N   UNL A   1      88.359 108.991 116.941  0.00  0.00    +0.223 N 
ATOM     14  H   UNL A   1      88.379 109.090 115.926  0.00  0.00    +0.200 HD
ATOM     15  H   UNL A   1      88.799 109.804 117.371  0.00  0.00    +0.200 HD
ATOM     16  H   UNL A   1      87.392 108.920 117.256  0.00  0.00    +0.200 HD
ENDBRANCH  12  13
ENDBRANCH  10  12
ENDBRANCH   9  10
ENDBRANCH   1   9
TORSDOF 4
ENDMDL
MODEL 2
REMARK VINA RESULT:      -5.3      0.422      2.474
REMARK  Name = mexiletine.pdb
REMARK  7 active torsions:
REMARK  status: ('A' for Active; 'I' for Inactive)
REMARK    1  A    between atoms: N_1  and  C_12
REMARK    2  A    between atoms: C_2  and  O_13
REMARK    3  A    between atoms: C_3  and  C_4
REMARK    4  A    between atoms: C_8  and  C_9
REMARK    5  A    between atoms: C_10  and  C_12
REMARK    6  A    between atoms: C_10  and  O_13
REMARK    7  A    between atoms: C_11  and  C_12
REMARK                            x       y       z     vdW  Elec       q    Type
REMARK                         _______ _______ _______ _____ _____    ______ ____
ROOT
ATOM      1  C   UNL A   1      88.618 104.329 117.244  0.00  0.00    +0.127 A 
ATOM      2  C   UNL A   1      87.548 103.405 117.337  0.00  0.00    -0.009 A 
ATOM      3  C   UNL A   1      86.105 103.580 116.930  0.00  0.00    +0.048 C 
ATOM      4  C   UNL A   1      87.793 102.154 117.954  0.00  0.00    +0.007 A 
ATOM      5  C   UNL A   1      89.046 101.797 118.427  0.00  0.00    +0.001 A 
ATOM      6  C   UNL A   1      90.100 102.686 118.302  0.00  0.00    +0.007 A 
ATOM      7  C   UNL A   1      89.904 103.948 117.718  0.00  0.00    -0.009 A 
ATOM      8  C   UNL A   1      91.094 104.869 117.617  0.00  0.00    +0.048 C 
ENDROOT
BRANCH   1   9
ATOM      9  O   UNL A   1      88.602 105.625 116.760  0.00  0.00    -0.486 OA
BRANCH   9  10
ATOM     10  C   UNL A   1      88.037 106.624 117.589  0.00  0.00    +0.282 C 
BRANCH  10  12
ATOM     11  C   UNL A   1      89.049 108.160 119.255  0.00  0.00    +0.067 C 
ATOM     12  C   UNL A   1      88.924 107.873 117.755  0.00  0.00    +0.096 C 
BRANCH  12  13
ATOM     13  N   UNL A   1      88.354 109.050 117.087  0.00  0.00    +0.223 N 
ATOM     14  H   UNL A   1      87.443 108.811 116.697  0.00  0.00    +0.200 HD
ATOM     15  H   UNL A   1      88.977 109.351 116.337  0.00  0.00    +0.200 HD
ATOM     16  H   UNL A   1      88.247 109.806 117.764  0.00  0.00    +0.200 HD
ENDBRANCH  12  13
ENDBRANCH  10  12
ENDBRANCH   9  10
ENDBRANCH   1   9
TORSDOF 4
ENDMDL
MODEL 3
REMARK VINA RESULT:      -5.0      1.747      2.751
REMARK  Name = mexiletine.pdb
REMARK  7 active torsions:
REMARK  status: ('A' for Active; 'I' for Inactive)
REMARK    1  A    between atoms: N_1  and  C_12
REMARK    2  A    between atoms: C_2  and  O_13
REMARK    3  A    between atoms: C_3  and  C_4
REMARK    4  A    between atoms: C_8  and  C_9
REMARK    5  A    between atoms: C_10  and  C_12
REMARK    6  A    between atoms: C_10  and  O_13
REMARK    7  A    between atoms: C_11  and  C_12
REMARK                            x       y       z     vdW  Elec       q    Type
REMARK                         _______ _______ _______ _____ _____    ______ ____
ROOT
ATOM      1  C   UNL A   1      89.429 104.054 117.176  0.00  0.00    +0.127 A 
ATOM      2  C   UNL A   1      88.464 104.192 116.148  0.00  0.00    -0.009 A 
ATOM      3  C   UNL A   1      88.466 105.125 114.962  0.00  0.00    +0.048 C 
ATOM      4  C   UNL A   1      87.278 103.422 116.234  0.00  0.00    +0.007 A 
ATOM      5  C   UNL A   1      87.057 102.519 117.262  0.00  0.00    +0.001 A 
ATOM      6  C   UNL A   1      88.018 102.357 118.246  0.00  0.00    +0.007 A 
ATOM      7  C   UNL A   1      89.200 103.114 118.218  0.00  0.00    -0.009 A 
ATOM      8  C   UNL A   1      90.203 102.892 119.323  0.00  0.00    +0.048 C 
ENDROOT
BRANCH   1   9
ATOM      9  O   UNL A   1      90.614 104.749 117.348  0.00  0.00    -0.486 OA
BRANCH   9  10
ATOM     10  C   UNL A   1      90.535 106.158 117.451  0.00  0.00    +0.282 C 
BRANCH  10  12
ATOM     11  C   UNL A   1      88.493 107.275 118.311  0.00  0.00    +0.067 C 
ATOM     12  C   UNL A   1      89.829 106.653 118.727  0.00  0.00    +0.096 C 
BRANCH  12  13
ATOM     13  N   UNL A   1      90.624 107.659 119.444  0.00  0.00    +0.223 N 
ATOM     14  H   UNL A   1      90.610 107.455 120.443  0.00  0.00    +0.200 HD
ATOM     15  H   UNL A   1      90.228 108.585 119.281  0.00  0.00    +0.200 HD
ATOM     16  H   UNL A   1      91.586 107.636 119.106  0.00  0.00    +0.200 HD
ENDBRANCH  12  13
ENDBRANCH  10  12
ENDBRANCH   9  10
ENDBRANCH   1   9
TORSDOF 4
ENDMDL
MODEL 4
REMARK VINA RESULT:      -4.8      9.276     10.514
REMARK  Name = mexiletine.pdb
REMARK  7 active torsions:
REMARK  status: ('A' for Active; 'I' for Inactive)
REMARK    1  A    between atoms: N_1  and  C_12
REMARK    2  A    between atoms: C_2  and  O_13
REMARK    3  A    between atoms: C_3  and  C_4
REMARK    4  A    between atoms: C_8  and  C_9
REMARK    5  A    between atoms: C_10  and  C_12
REMARK    6  A    between atoms: C_10  and  O_13
REMARK    7  A    between atoms: C_11  and  C_12
REMARK                            x       y       z     vdW  Elec       q    Type
REMARK                         _______ _______ _______ _____ _____    ______ ____
ROOT
ATOM      1  C   UNL A   1      84.523 102.793 109.155  0.00  0.00    +0.127 A 
ATOM      2  C   UNL A   1      85.244 103.203 110.302  0.00  0.00    -0.009 A 
ATOM      3  C   UNL A   1      85.739 104.581 110.670  0.00  0.00    +0.048 C 
ATOM      4  C   UNL A   1      85.646 102.214 111.233  0.00  0.00    +0.007 A 
ATOM      5  C   UNL A   1      85.321 100.875 111.072  0.00  0.00    +0.001 A 
ATOM      6  C   UNL A   1      84.583 100.480 109.970  0.00  0.00    +0.007 A 
ATOM      7  C   UNL A   1      84.181 101.420 109.007  0.00  0.00    -0.009 A 
ATOM      8  C   UNL A   1      83.383 100.922 107.828  0.00  0.00    +0.048 C 
ENDROOT
BRANCH   1   9
ATOM      9  O   UNL A   1      84.097 103.556 108.082  0.00  0.00    -0.486 OA
BRANCH   9  10
ATOM     10  C   UNL A   1      85.089 104.202 107.306  0.00  0.00    +0.282 C 
BRANCH  10  12
ATOM     11  C   UNL A   1      83.346 103.914 105.563  0.00  0.00    +0.067 C 
ATOM     12  C   UNL A   1      84.848 104.115 105.786  0.00  0.00    +0.096 C 
BRANCH  12  13
ATOM     13  N   UNL A   1      85.578 102.998 105.173  0.00  0.00    +0.223 N 
ATOM     14  H   UNL A   1      86.560 103.045 105.442  0.00  0.00    +0.200 HD
ATOM     15  H   UNL A   1      85.501 103.058 104.157  0.00  0.00    +0.200 HD
ATOM     16  H   UNL A   1      85.180 102.115 105.492  0.00  0.00    +0.200 HD
ENDBRANCH  12  13
ENDBRANCH  10  12
ENDBRANCH   9  10
ENDBRANCH   1   9
TORSDOF 4
ENDMDL
MODEL 5
REMARK VINA RESULT:      -4.8      9.356     10.802
REMARK  Name = mexiletine.pdb
REMARK  7 active torsions:
REMARK  status: ('A' for Active; 'I' for Inactive)
REMARK    1  A    between atoms: N_1  and  C_12
REMARK    2  A    between atoms: C_2  and  O_13
REMARK    3  A    between atoms: C_3  and  C_4
REMARK    4  A    between atoms: C_8  and  C_9
REMARK    5  A    between atoms: C_10  and  C_12
REMARK    6  A    between atoms: C_10  and  O_13
REMARK    7  A    between atoms: C_11  and  C_12
REMARK                            x       y       z     vdW  Elec       q    Type
REMARK                         _______ _______ _______ _____ _____    ______ ____
ROOT
ATOM      1  C   UNL A   1      84.078 102.522 108.223  0.00  0.00    +0.127 A 
ATOM      2  C   UNL A   1      83.892 101.280 108.876  0.00  0.00    -0.009 A 
ATOM      3  C   UNL A   1      84.767 100.608 109.907  0.00  0.00    +0.048 C 
ATOM      4  C   UNL A   1      82.785 100.481 108.498  0.00  0.00    +0.007 A 
ATOM      5  C   UNL A   1      81.867 100.897 107.545  0.00  0.00    +0.001 A 
ATOM      6  C   UNL A   1      82.030 102.128 106.933  0.00  0.00    +0.007 A 
ATOM      7  C   UNL A   1      83.124 102.947 107.258  0.00  0.00    -0.009 A 
ATOM      8  C   UNL A   1      83.243 104.274 106.551  0.00  0.00    +0.048 C 
ENDROOT
BRANCH   1   9
ATOM      9  O   UNL A   1      85.116 103.427 108.365  0.00  0.00    -0.486 OA
BRANCH   9  10
ATOM     10  C   UNL A   1      85.267 104.053 109.625  0.00  0.00    +0.282 C 
BRANCH  10  12
ATOM     11  C   UNL A   1      83.672 105.953 109.673  0.00  0.00    +0.067 C 
ATOM     12  C   UNL A   1      85.156 105.589 109.577  0.00  0.00    +0.096 C 
BRANCH  12  13
ATOM     13  N   UNL A   1      85.708 106.145 108.334  0.00  0.00    +0.223 N 
ATOM     14  H   UNL A   1      85.003 106.723 107.878  0.00  0.00    +0.200 HD
ATOM     15  H   UNL A   1      85.978 105.383 107.711  0.00  0.00    +0.200 HD
ATOM     16  H   UNL A   1      86.526 106.714 108.550  0.00  0.00    +0.200 HD
ENDBRANCH  12  13
ENDBRANCH  10  12
ENDBRANCH   9  10
ENDBRANCH   1   9
TORSDOF 4
ENDMDL
MODEL 6
REMARK VINA RESULT:      -4.7      7.744      8.725
REMARK  Name = mexiletine.pdb
REMARK  7 active torsions:
REMARK  status: ('A' for Active; 'I' for Inactive)
REMARK    1  A    between atoms: N_1  and  C_12
REMARK    2  A    between atoms: C_2  and  O_13
REMARK    3  A    between atoms: C_3  and  C_4
REMARK    4  A    between atoms: C_8  and  C_9
REMARK    5  A    between atoms: C_10  and  C_12
REMARK    6  A    between atoms: C_10  and  O_13
REMARK    7  A    between atoms: C_11  and  C_12
REMARK                            x       y       z     vdW  Elec       q    Type
REMARK                         _______ _______ _______ _____ _____    ______ ____
ROOT
ATOM      1  C   UNL A   1      85.148 103.100 109.677  0.00  0.00    +0.127 A 
ATOM      2  C   UNL A   1      85.612 102.751 110.969  0.00  0.00    -0.009 A 
ATOM      3  C   UNL A   1      86.350 103.602 111.974  0.00  0.00    +0.048 C 
ATOM      4  C   UNL A   1      85.452 101.413 111.402  0.00  0.00    +0.007 A 
ATOM      5  C   UNL A   1      84.824 100.455 110.620  0.00  0.00    +0.001 A 
ATOM      6  C   UNL A   1      84.337 100.805 109.372  0.00  0.00    +0.007 A 
ATOM      7  C   UNL A   1      84.492 102.115 108.888  0.00  0.00    -0.009 A 
ATOM      8  C   UNL A   1      83.941 102.428 107.520  0.00  0.00    +0.048 C 
ENDROOT
BRANCH   1   9
ATOM      9  O   UNL A   1      85.262 104.309 109.014  0.00  0.00    -0.486 OA
BRANCH   9  10
ATOM     10  C   UNL A   1      84.659 105.441 109.612  0.00  0.00    +0.282 C 
BRANCH  10  12
ATOM     11  C   UNL A   1      86.746 106.726 109.998  0.00  0.00    +0.067 C 
ATOM     12  C   UNL A   1      85.380 106.768 109.307  0.00  0.00    +0.096 C 
BRANCH  12  13
ATOM     13  N   UNL A   1      84.629 107.932 109.797  0.00  0.00    +0.223 N 
ATOM     14  H   UNL A   1      84.685 108.685 109.113  0.00  0.00    +0.200 HD
ATOM     15  H   UNL A   1      85.029 108.246 110.682  0.00  0.00    +0.200 HD
ATOM     16  H   UNL A   1      83.654 107.671 109.938  0.00  0.00    +0.200 HD
ENDBRANCH  12  13
ENDBRANCH  10  12
ENDBRANCH   9  10
ENDBRANCH   1   9
TORSDOF 4
ENDMDL
MODEL 7
REMARK VINA RESULT:      -4.7      9.280     10.726
REMARK  Name = mexiletine.pdb
REMARK  7 active torsions:
REMARK  status: ('A' for Active; 'I' for Inactive)
REMARK    1  A    between atoms: N_1  and  C_12
REMARK    2  A    between atoms: C_2  and  O_13
REMARK    3  A    between atoms: C_3  and  C_4
REMARK    4  A    between atoms: C_8  and  C_9
REMARK    5  A    between atoms: C_10  and  C_12
REMARK    6  A    between atoms: C_10  and  O_13
REMARK    7  A    between atoms: C_11  and  C_12
REMARK                            x       y       z     vdW  Elec       q    Type
REMARK                         _______ _______ _______ _____ _____    ______ ____
ROOT
ATOM      1  C   UNL A   1      84.578 102.820 109.125  0.00  0.00    +0.127 A 
ATOM      2  C   UNL A   1      84.285 101.435 109.078  0.00  0.00    -0.009 A 
ATOM      3  C   UNL A   1      83.537 100.658 108.022  0.00  0.00    +0.048 C 
ATOM      4  C   UNL A   1      84.660 100.632 110.183  0.00  0.00    +0.007 A 
ATOM      5  C   UNL A   1      85.335 101.151 111.277  0.00  0.00    +0.001 A 
ATOM      6  C   UNL A   1      85.654 102.497 111.305  0.00  0.00    +0.007 A 
ATOM      7  C   UNL A   1      85.284 103.340 110.245  0.00  0.00    -0.009 A 
ATOM      8  C   UNL A   1      85.660 104.798 110.341  0.00  0.00    +0.048 C 
ENDROOT
BRANCH   1   9
ATOM      9  O   UNL A   1      84.245 103.806 108.212  0.00  0.00    -0.486 OA
BRANCH   9  10
ATOM     10  C   UNL A   1      84.978 103.850 107.003  0.00  0.00    +0.282 C 
BRANCH  10  12
ATOM     11  C   UNL A   1      82.787 103.727 105.844  0.00  0.00    +0.067 C 
ATOM     12  C   UNL A   1      84.171 104.382 105.803  0.00  0.00    +0.096 C 
BRANCH  12  13
ATOM     13  N   UNL A   1      84.814 104.066 104.520  0.00  0.00    +0.223 N 
ATOM     14  H   UNL A   1      85.387 103.230 104.624  0.00  0.00    +0.200 HD
ATOM     15  H   UNL A   1      85.402 104.848 104.232  0.00  0.00    +0.200 HD
ATOM     16  H   UNL A   1      84.098 103.902 103.813  0.00  0.00    +0.200 HD
ENDBRANCH  12  13
ENDBRANCH  10  12
ENDBRANCH   9  10
ENDBRANCH   1   9
TORSDOF 4
ENDMDL
MODEL 8
REMARK VINA RESULT:      -4.6     10.807     12.325
REMARK  Name = mexiletine.pdb
REMARK  7 active torsions:
REMARK  status: ('A' for Active; 'I' for Inactive)
REMARK    1  A    between atoms: N_1  and  C_12
REMARK    2  A    between atoms: C_2  and  O_13
REMARK    3  A    between atoms: C_3  and  C_4
REMARK    4  A    between atoms: C_8  and  C_9
REMARK    5  A    between atoms: C_10  and  C_12
REMARK    6  A    between atoms: C_10  and  O_13
REMARK    7  A    between atoms: C_11  and  C_12
REMARK                            x       y       z     vdW  Elec       q    Type
REMARK                         _______ _______ _______ _____ _____    ______ ____
ROOT
ATOM      1  C   UNL A   1      83.093 102.833 107.613  0.00  0.00    +0.127 A 
ATOM      2  C   UNL A   1      82.298 101.666 107.506  0.00  0.00    -0.009 A 
ATOM      3  C   UNL A   1      81.068 101.429 106.664  0.00  0.00    +0.048 C 
ATOM      4  C   UNL A   1      82.613 100.561 108.333  0.00  0.00    +0.007 A 
ATOM      5  C   UNL A   1      83.690 100.576 109.206  0.00  0.00    +0.001 A 
ATOM      6  C   UNL A   1      84.490 101.703 109.283  0.00  0.00    +0.007 A 
ATOM      7  C   UNL A   1      84.205 102.834 108.500  0.00  0.00    -0.009 A 
ATOM      8  C   UNL A   1      85.114 104.030 108.635  0.00  0.00    +0.048 C 
ENDROOT
BRANCH   1   9
ATOM      9  O   UNL A   1      82.934 104.050 106.973  0.00  0.00    -0.486 OA
BRANCH   9  10
ATOM     10  C   UNL A   1      83.109 104.077 105.569  0.00  0.00    +0.282 C 
BRANCH  10  12
ATOM     11  C   UNL A   1      84.462 105.027 103.719  0.00  0.00    +0.067 C 
ATOM     12  C   UNL A   1      84.543 104.425 105.125  0.00  0.00    +0.096 C 
BRANCH  12  13
ATOM     13  N   UNL A   1      85.414 103.242 105.092  0.00  0.00    +0.223 N 
ATOM     14  H   UNL A   1      86.341 103.494 105.432  0.00  0.00    +0.200 HD
ATOM     15  H   UNL A   1      85.485 102.899 104.133  0.00  0.00    +0.200 HD
ATOM     16  H   UNL A   1      85.019 102.513 105.686  0.00  0.00    +0.200 HD
ENDBRANCH  12  13
ENDBRANCH  10  12
ENDBRANCH   9  10
ENDBRANCH   1   9
TORSDOF 4
ENDMDL
MODEL 9
REMARK VINA RESULT:      -4.6      8.497      9.532
REMARK  Name = mexiletine.pdb
REMARK  7 active torsions:
REMARK  status: ('A' for Active; 'I' for Inactive)
REMARK    1  A    between atoms: N_1  and  C_12
REMARK    2  A    between atoms: C_2  and  O_13
REMARK    3  A    between atoms: C_3  and  C_4
REMARK    4  A    between atoms: C_8  and  C_9
REMARK    5  A    between atoms: C_10  and  C_12
REMARK    6  A    between atoms: C_10  and  O_13
REMARK    7  A    between atoms: C_11  and  C_12
REMARK                            x       y       z     vdW  Elec       q    Type
REMARK                         _______ _______ _______ _____ _____    ______ ____
ROOT
ATOM      1  C   UNL A   1      84.973 103.420 108.778  0.00  0.00    +0.127 A 
ATOM      2  C   UNL A   1      85.162 102.836 110.054  0.00  0.00    -0.009 A 
ATOM      3  C   UNL A   1      85.772 103.442 111.295  0.00  0.00    +0.048 C 
ATOM      4  C   UNL A   1      84.812 101.475 110.228  0.00  0.00    +0.007 A 
ATOM      5  C   UNL A   1      84.260 100.718 109.206  0.00  0.00    +0.001 A 
ATOM      6  C   UNL A   1      84.041 101.300 107.969  0.00  0.00    +0.007 A 
ATOM      7  C   UNL A   1      84.392 102.640 107.740  0.00  0.00    -0.009 A 
ATOM      8  C   UNL A   1      84.131 103.211 106.368  0.00  0.00    +0.048 C 
ENDROOT
BRANCH   1   9
ATOM      9  O   UNL A   1      85.309 104.693 108.351  0.00  0.00    -0.486 OA
BRANCH   9  10
ATOM     10  C   UNL A   1      84.619 105.781 108.936  0.00  0.00    +0.282 C 
BRANCH  10  12
ATOM     11  C   UNL A   1      86.731 106.690 109.868  0.00  0.00    +0.067 C 
ATOM     12  C   UNL A   1      85.471 107.056 109.080  0.00  0.00    +0.096 C 
BRANCH  12  13
ATOM     13  N   UNL A   1      84.753 108.124 109.790  0.00  0.00    +0.223 N 
ATOM     14  H   UNL A   1      83.813 107.805 110.023  0.00  0.00    +0.200 HD
ATOM     15  H   UNL A   1      84.695 108.949 109.194  0.00  0.00    +0.200 HD
ATOM     16  H   UNL A   1      85.255 108.358 110.647  0.00  0.00    +0.200 HD
ENDBRANCH  12  13
ENDBRANCH  10  12
ENDBRANCH   9  10
ENDBRANCH   1   9
TORSDOF 4
ENDMDL
